   2   2   1   0
  0.2560000E+03  0.8000000E-09  0.8000000E-09  0.8000000E-09  0.5000000E-15
   1.0000000000000000E-004
  CAR 
 CO dimer in a box                       
      3.75182693    -30.82824263  301     -7.77396240      1.00000000
    -30.828  0.0000E+00  0.0000E+00
    -30.713  0.0000E+00  0.0000E+00
    -30.598  0.0000E+00  0.0000E+00
    -30.482  0.0000E+00  0.0000E+00
    -30.367  0.0000E+00  0.0000E+00
    -30.252  0.0000E+00  0.0000E+00
    -30.137  0.0000E+00  0.0000E+00
    -30.021  0.0000E+00  0.0000E+00
    -29.906  0.2177E-12  0.2509E-13
    -29.791  0.8648E-10  0.9994E-11
    -29.676  0.1795E-07  0.2079E-08
    -29.560  0.1944E-05  0.2261E-06
    -29.445  0.1101E-03  0.1292E-04
    -29.330  0.3277E-02  0.3906E-03
    -29.215  0.5134E-01  0.6309E-02
    -29.099  0.4253E+00  0.5534E-01
    -28.984  0.1869E+01  0.2708E+00
    -28.869  0.4372E+01  0.7748E+00
    -28.753  0.5451E+01  0.1403E+01
    -28.638  0.3625E+01  0.1821E+01
    -28.523  0.1285E+01  0.1969E+01
    -28.408  0.2421E+00  0.1997E+01
    -28.292  0.2418E-01  0.2000E+01
    -28.177  0.1275E-02  0.2000E+01
    -28.062  0.3539E-04  0.2000E+01
    -27.947  0.5151E-06  0.2000E+01
    -27.831  0.3920E-08  0.2000E+01
    -27.716  0.1556E-10  0.2000E+01
    -27.601  0.3082E-13  0.2000E+01
    -27.486  0.0000E+00  0.2000E+01
    -27.370  0.0000E+00  0.2000E+01
    -27.255  0.0000E+00  0.2000E+01
    -27.140  0.0000E+00  0.2000E+01
    -27.024  0.0000E+00  0.2000E+01
    -26.909  0.0000E+00  0.2000E+01
    -26.794  0.0000E+00  0.2000E+01
    -26.679  0.0000E+00  0.2000E+01
    -26.563  0.0000E+00  0.2000E+01
    -26.448  0.0000E+00  0.2000E+01
    -26.333  0.0000E+00  0.2000E+01
    -26.218  0.0000E+00  0.2000E+01
    -26.102  0.0000E+00  0.2000E+01
    -25.987  0.0000E+00  0.2000E+01
    -25.872  0.0000E+00  0.2000E+01
    -25.756  0.0000E+00  0.2000E+01
    -25.641  0.0000E+00  0.2000E+01
    -25.526  0.0000E+00  0.2000E+01
    -25.411  0.0000E+00  0.2000E+01
    -25.295  0.0000E+00  0.2000E+01
    -25.180  0.0000E+00  0.2000E+01
    -25.065  0.0000E+00  0.2000E+01
    -24.950  0.0000E+00  0.2000E+01
    -24.834  0.0000E+00  0.2000E+01
    -24.719  0.0000E+00  0.2000E+01
    -24.604  0.0000E+00  0.2000E+01
    -24.489  0.0000E+00  0.2000E+01
    -24.373  0.0000E+00  0.2000E+01
    -24.258  0.0000E+00  0.2000E+01
    -24.143  0.0000E+00  0.2000E+01
    -24.027  0.0000E+00  0.2000E+01
    -23.912  0.0000E+00  0.2000E+01
    -23.797  0.0000E+00  0.2000E+01
    -23.682  0.0000E+00  0.2000E+01
    -23.566  0.0000E+00  0.2000E+01
    -23.451  0.0000E+00  0.2000E+01
    -23.336  0.0000E+00  0.2000E+01
    -23.221  0.0000E+00  0.2000E+01
    -23.105  0.0000E+00  0.2000E+01
    -22.990  0.0000E+00  0.2000E+01
    -22.875  0.0000E+00  0.2000E+01
    -22.760  0.0000E+00  0.2000E+01
    -22.644  0.0000E+00  0.2000E+01
    -22.529  0.0000E+00  0.2000E+01
    -22.414  0.0000E+00  0.2000E+01
    -22.298  0.0000E+00  0.2000E+01
    -22.183  0.0000E+00  0.2000E+01
    -22.068  0.0000E+00  0.2000E+01
    -21.953  0.0000E+00  0.2000E+01
    -21.837  0.0000E+00  0.2000E+01
    -21.722  0.0000E+00  0.2000E+01
    -21.607  0.0000E+00  0.2000E+01
    -21.492  0.0000E+00  0.2000E+01
    -21.376  0.0000E+00  0.2000E+01
    -21.261  0.0000E+00  0.2000E+01
    -21.146  0.0000E+00  0.2000E+01
    -21.031  0.0000E+00  0.2000E+01
    -20.915  0.0000E+00  0.2000E+01
    -20.800  0.0000E+00  0.2000E+01
    -20.685  0.0000E+00  0.2000E+01
    -20.569  0.0000E+00  0.2000E+01
    -20.454  0.0000E+00  0.2000E+01
    -20.339  0.0000E+00  0.2000E+01
    -20.224  0.0000E+00  0.2000E+01
    -20.108  0.0000E+00  0.2000E+01
    -19.993  0.0000E+00  0.2000E+01
    -19.878  0.0000E+00  0.2000E+01
    -19.763  0.0000E+00  0.2000E+01
    -19.647  0.0000E+00  0.2000E+01
    -19.532  0.0000E+00  0.2000E+01
    -19.417  0.0000E+00  0.2000E+01
    -19.302  0.0000E+00  0.2000E+01
    -19.186  0.0000E+00  0.2000E+01
    -19.071  0.0000E+00  0.2000E+01
    -18.956  0.0000E+00  0.2000E+01
    -18.840  0.0000E+00  0.2000E+01
    -18.725  0.0000E+00  0.2000E+01
    -18.610  0.0000E+00  0.2000E+01
    -18.495  0.0000E+00  0.2000E+01
    -18.379  0.0000E+00  0.2000E+01
    -18.264  0.0000E+00  0.2000E+01
    -18.149  0.0000E+00  0.2000E+01
    -18.034  0.0000E+00  0.2000E+01
    -17.918  0.0000E+00  0.2000E+01
    -17.803  0.0000E+00  0.2000E+01
    -17.688  0.0000E+00  0.2000E+01
    -17.573  0.0000E+00  0.2000E+01
    -17.457  0.0000E+00  0.2000E+01
    -17.342  0.0000E+00  0.2000E+01
    -17.227  0.0000E+00  0.2000E+01
    -17.111  0.0000E+00  0.2000E+01
    -16.996  0.0000E+00  0.2000E+01
    -16.881  0.0000E+00  0.2000E+01
    -16.766  0.0000E+00  0.2000E+01
    -16.650  0.0000E+00  0.2000E+01
    -16.535  0.0000E+00  0.2000E+01
    -16.420  0.0000E+00  0.2000E+01
    -16.305  0.0000E+00  0.2000E+01
    -16.189  0.0000E+00  0.2000E+01
    -16.074  0.0000E+00  0.2000E+01
    -15.959  0.0000E+00  0.2000E+01
    -15.844  0.0000E+00  0.2000E+01
    -15.728  0.0000E+00  0.2000E+01
    -15.613  0.0000E+00  0.2000E+01
    -15.498  0.0000E+00  0.2000E+01
    -15.382  0.0000E+00  0.2000E+01
    -15.267  0.0000E+00  0.2000E+01
    -15.152  0.0000E+00  0.2000E+01
    -15.037  0.0000E+00  0.2000E+01
    -14.921  0.7705E-14  0.2000E+01
    -14.806  0.4264E-11  0.2000E+01
    -14.691  0.1239E-08  0.2000E+01
    -14.576  0.1877E-06  0.2000E+01
    -14.460  0.1485E-04  0.2000E+01
    -14.345  0.6160E-03  0.2000E+01
    -14.230  0.1343E-01  0.2002E+01
    -14.115  0.1546E+00  0.2019E+01
    -13.999  0.9420E+00  0.2128E+01
    -13.884  0.3050E+01  0.2480E+01
    -13.769  0.5262E+01  0.3086E+01
    -13.653  0.4841E+01  0.3644E+01
    -13.538  0.2375E+01  0.3918E+01
    -13.423  0.6202E+00  0.3989E+01
    -13.308  0.8601E-01  0.3999E+01
    -13.192  0.6310E-02  0.4000E+01
    -13.077  0.2441E-03  0.4000E+01
    -12.962  0.4959E-05  0.4000E+01
    -12.847  0.5276E-07  0.4000E+01
    -12.731  0.2931E-09  0.4000E+01
    -12.616  0.8495E-12  0.4000E+01
    -12.501  0.4623E-13  0.4000E+01
    -12.386  0.2273E-10  0.4000E+01
    -12.270  0.5931E-08  0.4000E+01
    -12.155  0.8070E-06  0.4000E+01
    -12.040  0.5740E-04  0.4000E+01
    -11.924  0.2141E-02  0.4000E+01
    -11.809  0.4200E-01  0.4005E+01
    -11.694  0.4351E+00  0.4055E+01
    -11.579  0.2388E+01  0.4331E+01
    -11.463  0.6970E+01  0.5134E+01
    -11.348  0.1084E+02  0.6383E+01
    -11.233  0.8990E+01  0.7420E+01
    -11.118  0.3975E+01  0.7878E+01
    -11.002  0.9355E+00  0.7986E+01
    -10.887  0.1168E+00  0.7999E+01
    -10.772  0.7715E-02  0.8000E+01
    -10.657  0.2684E-03  0.8000E+01
    -10.541  0.4903E-05  0.8000E+01
    -10.426  0.4687E-07  0.8000E+01
    -10.311  0.2338E-09  0.8000E+01
    -10.195  0.6087E-12  0.8000E+01
    -10.080  0.0000E+00  0.8000E+01
     -9.965  0.0000E+00  0.8000E+01
     -9.850  0.2504E-13  0.8000E+01
     -9.734  0.1244E-10  0.8000E+01
     -9.619  0.3213E-08  0.8000E+01
     -9.504  0.4329E-06  0.8000E+01
     -9.389  0.3049E-04  0.8000E+01
     -9.273  0.1126E-02  0.8000E+01
     -9.158  0.2187E-01  0.8003E+01
     -9.043  0.2244E+00  0.8029E+01
     -8.928  0.1220E+01  0.8169E+01
     -8.812  0.3525E+01  0.8575E+01
     -8.697  0.5430E+01  0.9201E+01
     -8.582  0.4460E+01  0.9715E+01
     -8.466  0.1953E+01  0.9941E+01
     -8.351  0.4553E+00  0.9993E+01
     -8.236  0.5630E-01  0.1000E+02
     -8.121  0.3682E-02  0.1000E+02
     -8.005  0.1268E-03  0.1000E+02
     -7.890  0.2294E-05  0.1000E+02
     -7.775  0.2171E-07  0.1000E+02
     -7.660  0.1072E-09  0.1000E+02
     -7.544  0.2774E-12  0.1000E+02
     -7.429  0.0000E+00  0.1000E+02
     -7.314  0.0000E+00  0.1000E+02
     -7.199  0.0000E+00  0.1000E+02
     -7.083  0.0000E+00  0.1000E+02
     -6.968  0.0000E+00  0.1000E+02
     -6.853  0.0000E+00  0.1000E+02
     -6.737  0.0000E+00  0.1000E+02
     -6.622  0.0000E+00  0.1000E+02
     -6.507  0.0000E+00  0.1000E+02
     -6.392  0.0000E+00  0.1000E+02
     -6.276  0.0000E+00  0.1000E+02
     -6.161  0.0000E+00  0.1000E+02
     -6.046  0.0000E+00  0.1000E+02
     -5.931  0.0000E+00  0.1000E+02
     -5.815  0.0000E+00  0.1000E+02
     -5.700  0.0000E+00  0.1000E+02
     -5.585  0.0000E+00  0.1000E+02
     -5.470  0.0000E+00  0.1000E+02
     -5.354  0.0000E+00  0.1000E+02
     -5.239  0.0000E+00  0.1000E+02
     -5.124  0.0000E+00  0.1000E+02
     -5.008  0.0000E+00  0.1000E+02
     -4.893  0.0000E+00  0.1000E+02
     -4.778  0.0000E+00  0.1000E+02
     -4.663  0.0000E+00  0.1000E+02
     -4.547  0.0000E+00  0.1000E+02
     -4.432  0.0000E+00  0.1000E+02
     -4.317  0.0000E+00  0.1000E+02
     -4.202  0.0000E+00  0.1000E+02
     -4.086  0.0000E+00  0.1000E+02
     -3.971  0.0000E+00  0.1000E+02
     -3.856  0.0000E+00  0.1000E+02
     -3.741  0.0000E+00  0.1000E+02
     -3.625  0.0000E+00  0.1000E+02
     -3.510  0.0000E+00  0.1000E+02
     -3.395  0.0000E+00  0.1000E+02
     -3.279  0.0000E+00  0.1000E+02
     -3.164  0.0000E+00  0.1000E+02
     -3.049  0.0000E+00  0.1000E+02
     -2.934  0.7705E-14  0.1000E+02
     -2.818  0.4313E-11  0.1000E+02
     -2.703  0.1349E-08  0.1000E+02
     -2.588  0.2200E-06  0.1000E+02
     -2.473  0.1873E-04  0.1000E+02
     -2.357  0.8355E-03  0.1000E+02
     -2.242  0.1959E-01  0.1000E+02
     -2.127  0.2422E+00  0.1003E+02
     -2.012  0.1586E+01  0.1021E+02
     -1.896  0.5514E+01  0.1085E+02
     -1.781  0.1021E+02  0.1203E+02
     -1.666  0.1009E+02  0.1319E+02
     -1.550  0.5312E+01  0.1380E+02
     -1.435  0.1490E+01  0.1397E+02
     -1.320  0.2220E+00  0.1400E+02
     -1.205  0.1750E-01  0.1400E+02
     -1.089  0.7278E-03  0.1400E+02
     -0.974  0.1690E-04  0.1400E+02
     -0.859  0.6247E-04  0.1400E+02
     -0.744  0.2043E-02  0.1400E+02
     -0.628  0.3526E-01  0.1400E+02
     -0.513  0.3216E+00  0.1404E+02
     -0.398  0.1556E+01  0.1422E+02
     -0.283  0.4003E+01  0.1468E+02
     -0.167  0.5490E+01  0.1531E+02
     -0.052  0.4016E+01  0.1578E+02
      0.063  0.1566E+01  0.1596E+02
      0.179  0.3247E+00  0.1600E+02
      0.294  0.3571E-01  0.1600E+02
      0.409  0.2075E-02  0.1600E+02
      0.524  0.6349E-04  0.1600E+02
      0.640  0.1019E-05  0.1600E+02
      0.755  0.8572E-08  0.1600E+02
      0.870  0.3957E-08  0.1600E+02
      0.985  0.5151E-06  0.1600E+02
      1.101  0.3539E-04  0.1600E+02
      1.216  0.1275E-02  0.1600E+02
      1.331  0.2418E-01  0.1600E+02
      1.446  0.2421E+00  0.1603E+02
      1.562  0.1285E+01  0.1618E+02
      1.677  0.3625E+01  0.1660E+02
      1.792  0.5451E+01  0.1723E+02
      1.908  0.4372E+01  0.1773E+02
      2.023  0.1869E+01  0.1794E+02
      2.138  0.4253E+00  0.1799E+02
      2.253  0.5134E-01  0.1800E+02
      2.369  0.3277E-02  0.1800E+02
      2.484  0.1101E-03  0.1800E+02
      2.599  0.1944E-05  0.1800E+02
      2.714  0.1795E-07  0.1800E+02
      2.830  0.8648E-10  0.1800E+02
      2.945  0.2177E-12  0.1800E+02
      3.060  0.0000E+00  0.1800E+02
      3.175  0.0000E+00  0.1800E+02
      3.291  0.0000E+00  0.1800E+02
      3.406  0.0000E+00  0.1800E+02
      3.521  0.0000E+00  0.1800E+02
      3.637  0.0000E+00  0.1800E+02
      3.752  0.0000E+00  0.1800E+02
      3.75182693    -30.82824263  301     -7.77396240      1.00000000
    -30.828  0.0000E+00  0.0000E+00  0.0000E+00  0.0000E+00  0.0000E+00  0.0000E+00  0.0000E+00  0.0000E+00  0.0000E+00
    -30.713  0.0000E+00  0.0000E+00  0.0000E+00  0.0000E+00  0.0000E+00  0.0000E+00  0.0000E+00  0.0000E+00  0.0000E+00
    -30.598  0.0000E+00  0.0000E+00  0.0000E+00  0.0000E+00  0.0000E+00  0.0000E+00  0.0000E+00  0.0000E+00  0.0000E+00
    -30.482  0.0000E+00  0.0000E+00  0.0000E+00  0.0000E+00  0.0000E+00  0.0000E+00  0.0000E+00  0.0000E+00  0.0000E+00
    -30.367  0.0000E+00  0.0000E+00  0.0000E+00  0.0000E+00  0.0000E+00  0.0000E+00  0.0000E+00  0.0000E+00  0.0000E+00
    -30.252  0.0000E+00  0.0000E+00  0.0000E+00  0.0000E+00  0.0000E+00  0.0000E+00  0.0000E+00  0.0000E+00  0.0000E+00
    -30.137  0.0000E+00  0.0000E+00  0.0000E+00  0.0000E+00  0.0000E+00  0.0000E+00  0.0000E+00  0.0000E+00  0.0000E+00
    -30.021  0.0000E+00  0.0000E+00  0.0000E+00  0.0000E+00  0.0000E+00  0.0000E+00  0.0000E+00  0.0000E+00  0.0000E+00
    -29.906  0.1729E-13  0.2295E-30  0.1391E-13  0.2295E-30  0.0000E+00  0.0000E+00  0.0000E+00  0.0000E+00  0.0000E+00
    -29.791  0.6868E-11  0.9119E-28  0.5527E-11  0.9119E-28  0.0000E+00  0.0000E+00  0.0000E+00  0.0000E+00  0.0000E+00
    -29.676  0.1425E-08  0.1892E-25  0.1147E-08  0.1892E-25  0.0000E+00  0.0000E+00  0.0000E+00  0.0000E+00  0.0000E+00
    -29.560  0.1543E-06  0.2049E-23  0.1242E-06  0.2049E-23  0.0000E+00  0.0000E+00  0.0000E+00  0.0000E+00  0.0000E+00
    -29.445  0.8747E-05  0.1161E-21  0.7039E-05  0.1161E-21  0.0000E+00  0.0000E+00  0.0000E+00  0.0000E+00  0.0000E+00
    -29.330  0.2602E-03  0.3455E-20  0.2094E-03  0.3455E-20  0.0000E+00  0.0000E+00  0.0000E+00  0.0000E+00  0.0000E+00
    -29.215  0.4077E-02  0.5414E-19  0.3281E-02  0.5414E-19  0.0000E+00  0.0000E+00  0.0000E+00  0.0000E+00  0.0000E+00
    -29.099  0.3378E-01  0.4485E-18  0.2718E-01  0.4485E-18  0.0000E+00  0.0000E+00  0.0000E+00  0.0000E+00  0.0000E+00
    -28.984  0.1485E+00  0.1971E-17  0.1195E+00  0.1971E-17  0.0000E+00  0.0000E+00  0.0000E+00  0.0000E+00  0.0000E+00
    -28.869  0.3472E+00  0.4610E-17  0.2794E+00  0.4610E-17  0.0000E+00  0.0000E+00  0.0000E+00  0.0000E+00  0.0000E+00
    -28.753  0.4329E+00  0.5748E-17  0.3484E+00  0.5748E-17  0.0000E+00  0.0000E+00  0.0000E+00  0.0000E+00  0.0000E+00
    -28.638  0.2879E+00  0.3823E-17  0.2317E+00  0.3823E-17  0.0000E+00  0.0000E+00  0.0000E+00  0.0000E+00  0.0000E+00
    -28.523  0.1020E+00  0.1355E-17  0.8211E-01  0.1355E-17  0.0000E+00  0.0000E+00  0.0000E+00  0.0000E+00  0.0000E+00
    -28.408  0.1923E-01  0.2553E-18  0.1547E-01  0.2553E-18  0.0000E+00  0.0000E+00  0.0000E+00  0.0000E+00  0.0000E+00
    -28.292  0.1920E-02  0.2550E-19  0.1545E-02  0.2550E-19  0.0000E+00  0.0000E+00  0.0000E+00  0.0000E+00  0.0000E+00
    -28.177  0.1013E-03  0.1345E-20  0.8150E-04  0.1345E-20  0.0000E+00  0.0000E+00  0.0000E+00  0.0000E+00  0.0000E+00
    -28.062  0.2811E-05  0.3732E-22  0.2262E-05  0.3732E-22  0.0000E+00  0.0000E+00  0.0000E+00  0.0000E+00  0.0000E+00
    -27.947  0.4091E-07  0.5432E-24  0.3292E-07  0.5432E-24  0.0000E+00  0.0000E+00  0.0000E+00  0.0000E+00  0.0000E+00
    -27.831  0.3113E-09  0.4133E-26  0.2505E-09  0.4133E-26  0.0000E+00  0.0000E+00  0.0000E+00  0.0000E+00  0.0000E+00
    -27.716  0.1235E-11  0.1640E-28  0.9941E-12  0.1640E-28  0.0000E+00  0.0000E+00  0.0000E+00  0.0000E+00  0.0000E+00
    -27.601  0.2448E-14  0.3250E-31  0.1970E-14  0.3250E-31  0.0000E+00  0.0000E+00  0.0000E+00  0.0000E+00  0.0000E+00
    -27.486  0.0000E+00  0.0000E+00  0.0000E+00  0.0000E+00  0.0000E+00  0.0000E+00  0.0000E+00  0.0000E+00  0.0000E+00
    -27.370  0.0000E+00  0.0000E+00  0.0000E+00  0.0000E+00  0.0000E+00  0.0000E+00  0.0000E+00  0.0000E+00  0.0000E+00
    -27.255  0.0000E+00  0.0000E+00  0.0000E+00  0.0000E+00  0.0000E+00  0.0000E+00  0.0000E+00  0.0000E+00  0.0000E+00
    -27.140  0.0000E+00  0.0000E+00  0.0000E+00  0.0000E+00  0.0000E+00  0.0000E+00  0.0000E+00  0.0000E+00  0.0000E+00
    -27.024  0.0000E+00  0.0000E+00  0.0000E+00  0.0000E+00  0.0000E+00  0.0000E+00  0.0000E+00  0.0000E+00  0.0000E+00
    -26.909  0.0000E+00  0.0000E+00  0.0000E+00  0.0000E+00  0.0000E+00  0.0000E+00  0.0000E+00  0.0000E+00  0.0000E+00
    -26.794  0.0000E+00  0.0000E+00  0.0000E+00  0.0000E+00  0.0000E+00  0.0000E+00  0.0000E+00  0.0000E+00  0.0000E+00
    -26.679  0.0000E+00  0.0000E+00  0.0000E+00  0.0000E+00  0.0000E+00  0.0000E+00  0.0000E+00  0.0000E+00  0.0000E+00
    -26.563  0.0000E+00  0.0000E+00  0.0000E+00  0.0000E+00  0.0000E+00  0.0000E+00  0.0000E+00  0.0000E+00  0.0000E+00
    -26.448  0.0000E+00  0.0000E+00  0.0000E+00  0.0000E+00  0.0000E+00  0.0000E+00  0.0000E+00  0.0000E+00  0.0000E+00
    -26.333  0.0000E+00  0.0000E+00  0.0000E+00  0.0000E+00  0.0000E+00  0.0000E+00  0.0000E+00  0.0000E+00  0.0000E+00
    -26.218  0.0000E+00  0.0000E+00  0.0000E+00  0.0000E+00  0.0000E+00  0.0000E+00  0.0000E+00  0.0000E+00  0.0000E+00
    -26.102  0.0000E+00  0.0000E+00  0.0000E+00  0.0000E+00  0.0000E+00  0.0000E+00  0.0000E+00  0.0000E+00  0.0000E+00
    -25.987  0.0000E+00  0.0000E+00  0.0000E+00  0.0000E+00  0.0000E+00  0.0000E+00  0.0000E+00  0.0000E+00  0.0000E+00
    -25.872  0.0000E+00  0.0000E+00  0.0000E+00  0.0000E+00  0.0000E+00  0.0000E+00  0.0000E+00  0.0000E+00  0.0000E+00
    -25.756  0.0000E+00  0.0000E+00  0.0000E+00  0.0000E+00  0.0000E+00  0.0000E+00  0.0000E+00  0.0000E+00  0.0000E+00
    -25.641  0.0000E+00  0.0000E+00  0.0000E+00  0.0000E+00  0.0000E+00  0.0000E+00  0.0000E+00  0.0000E+00  0.0000E+00
    -25.526  0.0000E+00  0.0000E+00  0.0000E+00  0.0000E+00  0.0000E+00  0.0000E+00  0.0000E+00  0.0000E+00  0.0000E+00
    -25.411  0.0000E+00  0.0000E+00  0.0000E+00  0.0000E+00  0.0000E+00  0.0000E+00  0.0000E+00  0.0000E+00  0.0000E+00
    -25.295  0.0000E+00  0.0000E+00  0.0000E+00  0.0000E+00  0.0000E+00  0.0000E+00  0.0000E+00  0.0000E+00  0.0000E+00
    -25.180  0.0000E+00  0.0000E+00  0.0000E+00  0.0000E+00  0.0000E+00  0.0000E+00  0.0000E+00  0.0000E+00  0.0000E+00
    -25.065  0.0000E+00  0.0000E+00  0.0000E+00  0.0000E+00  0.0000E+00  0.0000E+00  0.0000E+00  0.0000E+00  0.0000E+00
    -24.950  0.0000E+00  0.0000E+00  0.0000E+00  0.0000E+00  0.0000E+00  0.0000E+00  0.0000E+00  0.0000E+00  0.0000E+00
    -24.834  0.0000E+00  0.0000E+00  0.0000E+00  0.0000E+00  0.0000E+00  0.0000E+00  0.0000E+00  0.0000E+00  0.0000E+00
    -24.719  0.0000E+00  0.0000E+00  0.0000E+00  0.0000E+00  0.0000E+00  0.0000E+00  0.0000E+00  0.0000E+00  0.0000E+00
    -24.604  0.0000E+00  0.0000E+00  0.0000E+00  0.0000E+00  0.0000E+00  0.0000E+00  0.0000E+00  0.0000E+00  0.0000E+00
    -24.489  0.0000E+00  0.0000E+00  0.0000E+00  0.0000E+00  0.0000E+00  0.0000E+00  0.0000E+00  0.0000E+00  0.0000E+00
    -24.373  0.0000E+00  0.0000E+00  0.0000E+00  0.0000E+00  0.0000E+00  0.0000E+00  0.0000E+00  0.0000E+00  0.0000E+00
    -24.258  0.0000E+00  0.0000E+00  0.0000E+00  0.0000E+00  0.0000E+00  0.0000E+00  0.0000E+00  0.0000E+00  0.0000E+00
    -24.143  0.0000E+00  0.0000E+00  0.0000E+00  0.0000E+00  0.0000E+00  0.0000E+00  0.0000E+00  0.0000E+00  0.0000E+00
    -24.027  0.0000E+00  0.0000E+00  0.0000E+00  0.0000E+00  0.0000E+00  0.0000E+00  0.0000E+00  0.0000E+00  0.0000E+00
    -23.912  0.0000E+00  0.0000E+00  0.0000E+00  0.0000E+00  0.0000E+00  0.0000E+00  0.0000E+00  0.0000E+00  0.0000E+00
    -23.797  0.0000E+00  0.0000E+00  0.0000E+00  0.0000E+00  0.0000E+00  0.0000E+00  0.0000E+00  0.0000E+00  0.0000E+00
    -23.682  0.0000E+00  0.0000E+00  0.0000E+00  0.0000E+00  0.0000E+00  0.0000E+00  0.0000E+00  0.0000E+00  0.0000E+00
    -23.566  0.0000E+00  0.0000E+00  0.0000E+00  0.0000E+00  0.0000E+00  0.0000E+00  0.0000E+00  0.0000E+00  0.0000E+00
    -23.451  0.0000E+00  0.0000E+00  0.0000E+00  0.0000E+00  0.0000E+00  0.0000E+00  0.0000E+00  0.0000E+00  0.0000E+00
    -23.336  0.0000E+00  0.0000E+00  0.0000E+00  0.0000E+00  0.0000E+00  0.0000E+00  0.0000E+00  0.0000E+00  0.0000E+00
    -23.221  0.0000E+00  0.0000E+00  0.0000E+00  0.0000E+00  0.0000E+00  0.0000E+00  0.0000E+00  0.0000E+00  0.0000E+00
    -23.105  0.0000E+00  0.0000E+00  0.0000E+00  0.0000E+00  0.0000E+00  0.0000E+00  0.0000E+00  0.0000E+00  0.0000E+00
    -22.990  0.0000E+00  0.0000E+00  0.0000E+00  0.0000E+00  0.0000E+00  0.0000E+00  0.0000E+00  0.0000E+00  0.0000E+00
    -22.875  0.0000E+00  0.0000E+00  0.0000E+00  0.0000E+00  0.0000E+00  0.0000E+00  0.0000E+00  0.0000E+00  0.0000E+00
    -22.760  0.0000E+00  0.0000E+00  0.0000E+00  0.0000E+00  0.0000E+00  0.0000E+00  0.0000E+00  0.0000E+00  0.0000E+00
    -22.644  0.0000E+00  0.0000E+00  0.0000E+00  0.0000E+00  0.0000E+00  0.0000E+00  0.0000E+00  0.0000E+00  0.0000E+00
    -22.529  0.0000E+00  0.0000E+00  0.0000E+00  0.0000E+00  0.0000E+00  0.0000E+00  0.0000E+00  0.0000E+00  0.0000E+00
    -22.414  0.0000E+00  0.0000E+00  0.0000E+00  0.0000E+00  0.0000E+00  0.0000E+00  0.0000E+00  0.0000E+00  0.0000E+00
    -22.298  0.0000E+00  0.0000E+00  0.0000E+00  0.0000E+00  0.0000E+00  0.0000E+00  0.0000E+00  0.0000E+00  0.0000E+00
    -22.183  0.0000E+00  0.0000E+00  0.0000E+00  0.0000E+00  0.0000E+00  0.0000E+00  0.0000E+00  0.0000E+00  0.0000E+00
    -22.068  0.0000E+00  0.0000E+00  0.0000E+00  0.0000E+00  0.0000E+00  0.0000E+00  0.0000E+00  0.0000E+00  0.0000E+00
    -21.953  0.0000E+00  0.0000E+00  0.0000E+00  0.0000E+00  0.0000E+00  0.0000E+00  0.0000E+00  0.0000E+00  0.0000E+00
    -21.837  0.0000E+00  0.0000E+00  0.0000E+00  0.0000E+00  0.0000E+00  0.0000E+00  0.0000E+00  0.0000E+00  0.0000E+00
    -21.722  0.0000E+00  0.0000E+00  0.0000E+00  0.0000E+00  0.0000E+00  0.0000E+00  0.0000E+00  0.0000E+00  0.0000E+00
    -21.607  0.0000E+00  0.0000E+00  0.0000E+00  0.0000E+00  0.0000E+00  0.0000E+00  0.0000E+00  0.0000E+00  0.0000E+00
    -21.492  0.0000E+00  0.0000E+00  0.0000E+00  0.0000E+00  0.0000E+00  0.0000E+00  0.0000E+00  0.0000E+00  0.0000E+00
    -21.376  0.0000E+00  0.0000E+00  0.0000E+00  0.0000E+00  0.0000E+00  0.0000E+00  0.0000E+00  0.0000E+00  0.0000E+00
    -21.261  0.0000E+00  0.0000E+00  0.0000E+00  0.0000E+00  0.0000E+00  0.0000E+00  0.0000E+00  0.0000E+00  0.0000E+00
    -21.146  0.0000E+00  0.0000E+00  0.0000E+00  0.0000E+00  0.0000E+00  0.0000E+00  0.0000E+00  0.0000E+00  0.0000E+00
    -21.031  0.0000E+00  0.0000E+00  0.0000E+00  0.0000E+00  0.0000E+00  0.0000E+00  0.0000E+00  0.0000E+00  0.0000E+00
    -20.915  0.0000E+00  0.0000E+00  0.0000E+00  0.0000E+00  0.0000E+00  0.0000E+00  0.0000E+00  0.0000E+00  0.0000E+00
    -20.800  0.0000E+00  0.0000E+00  0.0000E+00  0.0000E+00  0.0000E+00  0.0000E+00  0.0000E+00  0.0000E+00  0.0000E+00
    -20.685  0.0000E+00  0.0000E+00  0.0000E+00  0.0000E+00  0.0000E+00  0.0000E+00  0.0000E+00  0.0000E+00  0.0000E+00
    -20.569  0.0000E+00  0.0000E+00  0.0000E+00  0.0000E+00  0.0000E+00  0.0000E+00  0.0000E+00  0.0000E+00  0.0000E+00
    -20.454  0.0000E+00  0.0000E+00  0.0000E+00  0.0000E+00  0.0000E+00  0.0000E+00  0.0000E+00  0.0000E+00  0.0000E+00
    -20.339  0.0000E+00  0.0000E+00  0.0000E+00  0.0000E+00  0.0000E+00  0.0000E+00  0.0000E+00  0.0000E+00  0.0000E+00
    -20.224  0.0000E+00  0.0000E+00  0.0000E+00  0.0000E+00  0.0000E+00  0.0000E+00  0.0000E+00  0.0000E+00  0.0000E+00
    -20.108  0.0000E+00  0.0000E+00  0.0000E+00  0.0000E+00  0.0000E+00  0.0000E+00  0.0000E+00  0.0000E+00  0.0000E+00
    -19.993  0.0000E+00  0.0000E+00  0.0000E+00  0.0000E+00  0.0000E+00  0.0000E+00  0.0000E+00  0.0000E+00  0.0000E+00
    -19.878  0.0000E+00  0.0000E+00  0.0000E+00  0.0000E+00  0.0000E+00  0.0000E+00  0.0000E+00  0.0000E+00  0.0000E+00
    -19.763  0.0000E+00  0.0000E+00  0.0000E+00  0.0000E+00  0.0000E+00  0.0000E+00  0.0000E+00  0.0000E+00  0.0000E+00
    -19.647  0.0000E+00  0.0000E+00  0.0000E+00  0.0000E+00  0.0000E+00  0.0000E+00  0.0000E+00  0.0000E+00  0.0000E+00
    -19.532  0.0000E+00  0.0000E+00  0.0000E+00  0.0000E+00  0.0000E+00  0.0000E+00  0.0000E+00  0.0000E+00  0.0000E+00
    -19.417  0.0000E+00  0.0000E+00  0.0000E+00  0.0000E+00  0.0000E+00  0.0000E+00  0.0000E+00  0.0000E+00  0.0000E+00
    -19.302  0.0000E+00  0.0000E+00  0.0000E+00  0.0000E+00  0.0000E+00  0.0000E+00  0.0000E+00  0.0000E+00  0.0000E+00
    -19.186  0.0000E+00  0.0000E+00  0.0000E+00  0.0000E+00  0.0000E+00  0.0000E+00  0.0000E+00  0.0000E+00  0.0000E+00
    -19.071  0.0000E+00  0.0000E+00  0.0000E+00  0.0000E+00  0.0000E+00  0.0000E+00  0.0000E+00  0.0000E+00  0.0000E+00
    -18.956  0.0000E+00  0.0000E+00  0.0000E+00  0.0000E+00  0.0000E+00  0.0000E+00  0.0000E+00  0.0000E+00  0.0000E+00
    -18.840  0.0000E+00  0.0000E+00  0.0000E+00  0.0000E+00  0.0000E+00  0.0000E+00  0.0000E+00  0.0000E+00  0.0000E+00
    -18.725  0.0000E+00  0.0000E+00  0.0000E+00  0.0000E+00  0.0000E+00  0.0000E+00  0.0000E+00  0.0000E+00  0.0000E+00
    -18.610  0.0000E+00  0.0000E+00  0.0000E+00  0.0000E+00  0.0000E+00  0.0000E+00  0.0000E+00  0.0000E+00  0.0000E+00
    -18.495  0.0000E+00  0.0000E+00  0.0000E+00  0.0000E+00  0.0000E+00  0.0000E+00  0.0000E+00  0.0000E+00  0.0000E+00
    -18.379  0.0000E+00  0.0000E+00  0.0000E+00  0.0000E+00  0.0000E+00  0.0000E+00  0.0000E+00  0.0000E+00  0.0000E+00
    -18.264  0.0000E+00  0.0000E+00  0.0000E+00  0.0000E+00  0.0000E+00  0.0000E+00  0.0000E+00  0.0000E+00  0.0000E+00
    -18.149  0.0000E+00  0.0000E+00  0.0000E+00  0.0000E+00  0.0000E+00  0.0000E+00  0.0000E+00  0.0000E+00  0.0000E+00
    -18.034  0.0000E+00  0.0000E+00  0.0000E+00  0.0000E+00  0.0000E+00  0.0000E+00  0.0000E+00  0.0000E+00  0.0000E+00
    -17.918  0.0000E+00  0.0000E+00  0.0000E+00  0.0000E+00  0.0000E+00  0.0000E+00  0.0000E+00  0.0000E+00  0.0000E+00
    -17.803  0.0000E+00  0.0000E+00  0.0000E+00  0.0000E+00  0.0000E+00  0.0000E+00  0.0000E+00  0.0000E+00  0.0000E+00
    -17.688  0.0000E+00  0.0000E+00  0.0000E+00  0.0000E+00  0.0000E+00  0.0000E+00  0.0000E+00  0.0000E+00  0.0000E+00
    -17.573  0.0000E+00  0.0000E+00  0.0000E+00  0.0000E+00  0.0000E+00  0.0000E+00  0.0000E+00  0.0000E+00  0.0000E+00
    -17.457  0.0000E+00  0.0000E+00  0.0000E+00  0.0000E+00  0.0000E+00  0.0000E+00  0.0000E+00  0.0000E+00  0.0000E+00
    -17.342  0.0000E+00  0.0000E+00  0.0000E+00  0.0000E+00  0.0000E+00  0.0000E+00  0.0000E+00  0.0000E+00  0.0000E+00
    -17.227  0.0000E+00  0.0000E+00  0.0000E+00  0.0000E+00  0.0000E+00  0.0000E+00  0.0000E+00  0.0000E+00  0.0000E+00
    -17.111  0.0000E+00  0.0000E+00  0.0000E+00  0.0000E+00  0.0000E+00  0.0000E+00  0.0000E+00  0.0000E+00  0.0000E+00
    -16.996  0.0000E+00  0.0000E+00  0.0000E+00  0.0000E+00  0.0000E+00  0.0000E+00  0.0000E+00  0.0000E+00  0.0000E+00
    -16.881  0.0000E+00  0.0000E+00  0.0000E+00  0.0000E+00  0.0000E+00  0.0000E+00  0.0000E+00  0.0000E+00  0.0000E+00
    -16.766  0.0000E+00  0.0000E+00  0.0000E+00  0.0000E+00  0.0000E+00  0.0000E+00  0.0000E+00  0.0000E+00  0.0000E+00
    -16.650  0.0000E+00  0.0000E+00  0.0000E+00  0.0000E+00  0.0000E+00  0.0000E+00  0.0000E+00  0.0000E+00  0.0000E+00
    -16.535  0.0000E+00  0.0000E+00  0.0000E+00  0.0000E+00  0.0000E+00  0.0000E+00  0.0000E+00  0.0000E+00  0.0000E+00
    -16.420  0.0000E+00  0.0000E+00  0.0000E+00  0.0000E+00  0.0000E+00  0.0000E+00  0.0000E+00  0.0000E+00  0.0000E+00
    -16.305  0.0000E+00  0.0000E+00  0.0000E+00  0.0000E+00  0.0000E+00  0.0000E+00  0.0000E+00  0.0000E+00  0.0000E+00
    -16.189  0.0000E+00  0.0000E+00  0.0000E+00  0.0000E+00  0.0000E+00  0.0000E+00  0.0000E+00  0.0000E+00  0.0000E+00
    -16.074  0.0000E+00  0.0000E+00  0.0000E+00  0.0000E+00  0.0000E+00  0.0000E+00  0.0000E+00  0.0000E+00  0.0000E+00
    -15.959  0.0000E+00  0.0000E+00  0.0000E+00  0.0000E+00  0.0000E+00  0.0000E+00  0.0000E+00  0.0000E+00  0.0000E+00
    -15.844  0.0000E+00  0.0000E+00  0.0000E+00  0.0000E+00  0.0000E+00  0.0000E+00  0.0000E+00  0.0000E+00  0.0000E+00
    -15.728  0.0000E+00  0.0000E+00  0.0000E+00  0.0000E+00  0.0000E+00  0.0000E+00  0.0000E+00  0.0000E+00  0.0000E+00
    -15.613  0.0000E+00  0.0000E+00  0.0000E+00  0.0000E+00  0.0000E+00  0.0000E+00  0.0000E+00  0.0000E+00  0.0000E+00
    -15.498  0.0000E+00  0.0000E+00  0.0000E+00  0.0000E+00  0.0000E+00  0.0000E+00  0.0000E+00  0.0000E+00  0.0000E+00
    -15.382  0.0000E+00  0.0000E+00  0.0000E+00  0.0000E+00  0.0000E+00  0.0000E+00  0.0000E+00  0.0000E+00  0.0000E+00
    -15.267  0.0000E+00  0.0000E+00  0.0000E+00  0.0000E+00  0.0000E+00  0.0000E+00  0.0000E+00  0.0000E+00  0.0000E+00
    -15.152  0.0000E+00  0.0000E+00  0.0000E+00  0.0000E+00  0.0000E+00  0.0000E+00  0.0000E+00  0.0000E+00  0.0000E+00
    -15.037  0.0000E+00  0.0000E+00  0.0000E+00  0.0000E+00  0.0000E+00  0.0000E+00  0.0000E+00  0.0000E+00  0.0000E+00
    -14.921  0.8384E-15  0.2618E-31  0.9696E-16  0.2618E-31  0.0000E+00  0.0000E+00  0.0000E+00  0.0000E+00  0.0000E+00
    -14.806  0.4639E-12  0.1449E-28  0.5366E-13  0.1449E-28  0.0000E+00  0.0000E+00  0.0000E+00  0.0000E+00  0.0000E+00
    -14.691  0.1348E-09  0.4210E-26  0.1559E-10  0.4210E-26  0.0000E+00  0.0000E+00  0.0000E+00  0.0000E+00  0.0000E+00
    -14.576  0.2042E-07  0.6377E-24  0.2362E-08  0.6377E-24  0.0000E+00  0.0000E+00  0.0000E+00  0.0000E+00  0.0000E+00
    -14.460  0.1616E-05  0.5047E-22  0.1869E-06  0.5047E-22  0.0000E+00  0.0000E+00  0.0000E+00  0.0000E+00  0.0000E+00
    -14.345  0.6702E-04  0.2093E-20  0.7751E-05  0.2093E-20  0.0000E+00  0.0000E+00  0.0000E+00  0.0000E+00  0.0000E+00
    -14.230  0.1461E-02  0.4564E-19  0.1690E-03  0.4564E-19  0.0000E+00  0.0000E+00  0.0000E+00  0.0000E+00  0.0000E+00
    -14.115  0.1682E-01  0.5252E-18  0.1945E-02  0.5252E-18  0.0000E+00  0.0000E+00  0.0000E+00  0.0000E+00  0.0000E+00
    -13.999  0.1025E+00  0.3201E-17  0.1185E-01  0.3201E-17  0.0000E+00  0.0000E+00  0.0000E+00  0.0000E+00  0.0000E+00
    -13.884  0.3319E+00  0.1037E-16  0.3839E-01  0.1037E-16  0.0000E+00  0.0000E+00  0.0000E+00  0.0000E+00  0.0000E+00
    -13.769  0.5725E+00  0.1788E-16  0.6621E-01  0.1788E-16  0.0000E+00  0.0000E+00  0.0000E+00  0.0000E+00  0.0000E+00
    -13.653  0.5267E+00  0.1645E-16  0.6092E-01  0.1645E-16  0.0000E+00  0.0000E+00  0.0000E+00  0.0000E+00  0.0000E+00
    -13.538  0.2584E+00  0.8070E-17  0.2988E-01  0.8070E-17  0.0000E+00  0.0000E+00  0.0000E+00  0.0000E+00  0.0000E+00
    -13.423  0.6749E-01  0.2108E-17  0.7805E-02  0.2108E-17  0.0000E+00  0.0000E+00  0.0000E+00  0.0000E+00  0.0000E+00
    -13.308  0.9358E-02  0.2923E-18  0.1082E-02  0.2923E-18  0.0000E+00  0.0000E+00  0.0000E+00  0.0000E+00  0.0000E+00
    -13.192  0.6866E-03  0.2144E-19  0.7941E-04  0.2144E-19  0.0000E+00  0.0000E+00  0.0000E+00  0.0000E+00  0.0000E+00
    -13.077  0.2656E-04  0.8294E-21  0.3072E-05  0.8294E-21  0.0000E+00  0.0000E+00  0.0000E+00  0.0000E+00  0.0000E+00
    -12.962  0.5396E-06  0.1685E-22  0.6241E-07  0.1685E-22  0.0000E+00  0.0000E+00  0.0000E+00  0.0000E+00  0.0000E+00
    -12.847  0.5741E-08  0.1793E-24  0.6640E-09  0.1793E-24  0.0000E+00  0.0000E+00  0.0000E+00  0.0000E+00  0.0000E+00