    2    2    1    1
  0.2560000E+03  0.8000000E-09  0.8000000E-09  0.8000000E-09  0.5000000E-15
   1.0000000000000000E-004
  CAR 
 CO dimer in a box                       
     10      1      9

  0.1262379E-14  0.1262379E-14  0.1262379E-14  0.1000000E+01
      1        -28.828243   1.000000
      2        -13.784036   1.000000
      3        -11.382440   1.000000
      4        -11.382440   1.000000
      5         -8.733070   1.000000
      6         -1.783263   0.000000
      7         -1.783263   0.000000
      8         -0.224593   0.000000
      9          1.751827   0.000000
