       N       E                     dE             d eps       ncg     rms          rms(c)
DAV:   1     0.894252170626E+02    0.89425E+02   -0.30377E+03    18   0.784E+02
DAV:   2     0.178611946205E+02   -0.71564E+02   -0.71102E+02    34   0.134E+02
DAV:   3    -0.128803449431E+02   -0.30742E+02   -0.30720E+02    27   0.886E+01
DAV:   4    -0.156934319966E+02   -0.28131E+01   -0.28130E+01    20   0.277E+01
DAV:   5    -0.157409992142E+02   -0.47567E-01   -0.47566E-01    28   0.424E+00    0.297E+01
DAV:   6    -0.150963946560E+02    0.64460E+00   -0.32733E+00    19   0.126E+01    0.200E+01
DAV:   7    -0.150398616161E+02    0.56533E-01   -0.26448E+00    28   0.104E+01    0.266E+00
DAV:   8    -0.149205426918E+02    0.11932E+00   -0.82746E-01    19   0.548E+00    0.229E+00
DAV:   9    -0.149227874526E+02   -0.22448E-02   -0.30024E-02    18   0.166E+00    0.408E-01
DAV:  10    -0.149226712598E+02    0.11619E-03   -0.78134E-03    26   0.649E-01    0.525E-01
DAV:  11    -0.149242484574E+02   -0.15772E-02   -0.42719E-04    18   0.227E-01    0.182E-01
DAV:  12    -0.149247426034E+02   -0.49415E-03   -0.30843E-04    20   0.123E-01    0.712E-02
DAV:  13    -0.149260561167E+02   -0.13135E-02   -0.16824E-04    18   0.865E-02    0.239E-02
DAV:  14    -0.149265248677E+02   -0.46875E-03   -0.44308E-05    20   0.344E-02    0.367E-02
DAV:  15    -0.149268916430E+02   -0.36678E-03   -0.58367E-05    20   0.441E-02    0.213E-02
DAV:  16    -0.149269739700E+02   -0.82327E-04   -0.47267E-06    20   0.153E-02
   1 F= -.14926974E+02 E0= -.14926974E+02  d E =-.116119E-10
