 vasp.6.4.2 20Jul23 (build Nov 21 2024 16:34:56) gamma-only                      
 executed on             LinuxGNU date 2025.03.12  19:59:04
 running    1 mpi-ranks, with    8 threads/rank, on    1 nodes
 distrk:  each k-point on    1 cores,    1 groups
 distr:  one band on NCORE=   1 cores,    1 groups


--------------------------------------------------------------------------------------------------------


 INCAR:
   SYSTEM = CO dimer in a box
   ISMEAR = 0
   LORBIT = 11

 POTCAR:    PAW_PBE C_h 06Feb2004                 
 POTCAR:    PAW_PBE O_h 06Feb2004                 
 POTCAR:    PAW_PBE C_h 06Feb2004                 
   VRHFIN =C: s2p2                                                                                  
   LEXCH  = PE                                                                                      
   EATOM  =   147.1560 eV,   10.8157 Ry                                                             
                                                                                                    
   TITEL  = PAW_PBE C_h 06Feb2004                                                                   
   LULTRA =        F    use ultrasoft PP ?                                                          
   IUNSCR =        1    unscreen: 0-lin 1-nonlin 2-no                                               
   RPACOR =    0.800    partial core radius                                                         
   POMASS =   12.011; ZVAL   =    4.000    mass and valenz                                          
   RCORE  =    1.100    outmost cutoff radius                                                       
   RWIGS  =    1.630; RWIGS  =    0.863    wigner-seitz radius (au A)                               
   ENMAX  =  700.000; ENMIN  =  500.000 eV                                                          
   ICORE  =        2    local potential                                                             
   LCOR   =        T    correct aug charges                                                         
   LPAW   =        T    paw PP                                                                      
   EAUG   =  946.768                                                                                
   DEXC   =    0.000                                                                                
   RMAX   =    1.128    core radius for proj-oper                                                   
   RAUG   =    1.300    factor for augmentation sphere                                              
   RDEP   =    1.162    radius for radial grids                                                     
   RDEPT  =    1.088    core radius for aug-charge                                                  
                                                                                                    
   Atomic configuration                                                                             
    4 entries                                                                                       
     n  l   j            E        occ.                                                              
     1  0  0.50      -273.3789   2.0000                                                             
     2  0  0.50       -13.7508   2.0000                                                             
     2  1  0.50        -5.2854   2.0000                                                             
     3  2  1.50        -5.4423   0.0000                                                             
   Description                                                                                      
     l       E           TYP  RCUT    TYP  RCUT                                                     
     0    -13.7508458     23  1.100                                                                 
     0     -8.2022199     23  1.100                                                                 
     1     -5.2854383     23  1.100                                                                 
     1      1.1560700     23  1.100                                                                 
     2     -5.4423304      7  1.100                                                                 
  local pseudopotential read in
  partial core-charges read in
  partial kinetic energy density read in
  atomic valenz-charges read in
  non local Contribution for L=           0  read in
    real space projection operators read in
  non local Contribution for L=           0  read in
    real space projection operators read in
  non local Contribution for L=           1  read in
    real space projection operators read in
  non local Contribution for L=           1  read in
    real space projection operators read in
    PAW grid and wavefunctions read in

   number of l-projection  operators is LMAX  =           4
   number of lm-projection operators is LMMAX =           8

 POTCAR:    PAW_PBE O_h 06Feb2004                 
   VRHFIN =O: s2p4                                                                                  
   LEXCH  = PE                                                                                      
   EATOM  =   432.3788 eV,   31.7789 Ry                                                             
                                                                                                    
   TITEL  = PAW_PBE O_h 06Feb2004                                                                   
   LULTRA =        F    use ultrasoft PP ?                                                          
   IUNSCR =        1    unscreen: 0-lin 1-nonlin 2-no                                               
   RPACOR =    0.800    partial core radius                                                         
   POMASS =   16.000; ZVAL   =    6.000    mass and valenz                                          
   RCORE  =    1.100    outmost cutoff radius                                                       
   RWIGS  =    1.400; RWIGS  =    0.741    wigner-seitz radius (au A)                               
   ENMAX  =  700.000; ENMIN  =  500.000 eV                                                          
   ICORE  =        2    local potential                                                             
   LCOR   =        T    correct aug charges                                                         
   LPAW   =        T    paw PP                                                                      
   EAUG   =  888.804                                                                                
   DEXC   =    0.000                                                                                
   RMAX   =    1.128    core radius for proj-oper                                                   
   RAUG   =    1.300    factor for augmentation sphere                                              
   RDEP   =    1.125    radius for radial grids                                                     
   RDEPT  =    1.088    core radius for aug-charge                                                  
                                                                                                    
   Atomic configuration                                                                             
    4 entries                                                                                       
     n  l   j            E        occ.                                                              
     1  0  0.50      -514.6923   2.0000                                                             
     2  0  0.50       -23.9615   2.0000                                                             
     2  1  0.50        -9.0305   4.0000                                                             
     3  2  1.50        -9.5241   0.0000                                                             
   Description                                                                                      
     l       E           TYP  RCUT    TYP  RCUT                                                     
     0    -23.9615319     23  1.100                                                                 
     0    -25.3221145     23  1.100                                                                 
     1     -9.0304911     23  1.100                                                                 
     1     -5.4802209     23  1.100                                                                 
     2     -9.5240782      7  1.100                                                                 
  local pseudopotential read in
  partial core-charges read in
  partial kinetic energy density read in
  atomic valenz-charges read in
  non local Contribution for L=           0  read in
    real space projection operators read in
  non local Contribution for L=           0  read in
    real space projection operators read in
  non local Contribution for L=           1  read in
    real space projection operators read in
  non local Contribution for L=           1  read in
    real space projection operators read in
    PAW grid and wavefunctions read in

   number of l-projection  operators is LMAX  =           4
   number of lm-projection operators is LMMAX =           8

  PAW_PBE C_h 06Feb2004                 :
 energy of atom  1       EATOM= -147.1560
 kinetic energy error for atom=    0.0286 (will be added to EATOM!!)
  PAW_PBE O_h 06Feb2004                 :
 energy of atom  2       EATOM= -432.3788
 kinetic energy error for atom=    0.1855 (will be added to EATOM!!)


 POSCAR: CO dimer in a box
  positions in cartesian coordinates
  No initial velocities read in
 exchange correlation table for  LEXCH =        8
   RHO(1)=    0.500       N(1)  =     2000
   RHO(2)=  100.500       N(2)  =     4000



--------------------------------------------------------------------------------------------------------


 ion  position               nearest neighbor table
   1  0.000  0.000  0.000-   2 1.14
   2  0.000  0.000  0.143-   1 1.14

  LATTYP: Found a simple cubic cell.
 ALAT       =     8.0000000000
  
  Lattice vectors:
  
 A1 = (   8.0000000000,   0.0000000000,   0.0000000000)
 A2 = (   0.0000000000,   8.0000000000,   0.0000000000)
 A3 = (   0.0000000000,   0.0000000000,   8.0000000000)


Analysis of symmetry for initial positions (statically):
=====================================================================
 Subroutine PRICEL returns:
 Original cell was already a primitive cell.
 

 Routine SETGRP: Setting up the symmetry group for a 
 simple cubic supercell.


 Subroutine GETGRP returns: Found  8 space group operations
 (whereof  8 operations were pure point group operations)
 out of a pool of 48 trial point group operations.


The static configuration has the point symmetry C_4v.


Analysis of symmetry for dynamics (positions and initial velocities):
=====================================================================
 Subroutine PRICEL returns:
 Original cell was already a primitive cell.
 

 Routine SETGRP: Setting up the symmetry group for a 
 simple cubic supercell.


 Subroutine GETGRP returns: Found  8 space group operations
 (whereof  8 operations were pure point group operations)
 out of a pool of 48 trial point group operations.


The dynamic configuration has the point symmetry C_4v.


Analysis of constrained symmetry for selective dynamics:
=====================================================================
 Subroutine PRICEL returns:
 Original cell was already a primitive cell.
 

 Routine SETGRP: Setting up the symmetry group for a 
 simple cubic supercell.


 Subroutine GETGRP returns: Found  8 space group operations
 (whereof  8 operations were pure point group operations)
 out of a pool of 48 trial point group operations.


The constrained configuration has the point symmetry C_4v.


 Subroutine INISYM returns: Found  8 space group operations
 (whereof  8 operations are pure point group operations),
 and found     1 'primitive' translations


----------------------------------------------------------------------------------------

                                     Primitive cell                                     

  volume of cell :     512.0000

  direct lattice vectors                    reciprocal lattice vectors
     8.000000000  0.000000000  0.000000000     0.125000000  0.000000000  0.000000000
     0.000000000  8.000000000  0.000000000     0.000000000  0.125000000  0.000000000
     0.000000000  0.000000000  8.000000000     0.000000000  0.000000000  0.125000000

  length of vectors
     8.000000000  8.000000000  8.000000000     0.125000000  0.125000000  0.125000000

  position of ions in fractional coordinates (direct lattice)
     0.000000000  0.000000000  0.000000000
     0.000000000  0.000000000  0.142875000

  ion indices of the primitive-cell ions
   primitive index   ion index
                 1           1
                 2           2

----------------------------------------------------------------------------------------



 KPOINTS: Gamma-point only                        

Automatic generation of k-mesh.
 Grid dimensions read from file:
 generate k-points for:    1    1    1

 Generating k-lattice:

  Cartesian coordinates                     Fractional coordinates (reciprocal lattice)
     0.125000000  0.000000000  0.000000000     1.000000000  0.000000000  0.000000000
     0.000000000  0.125000000  0.000000000     0.000000000  1.000000000  0.000000000
     0.000000000  0.000000000  0.125000000     0.000000000  0.000000000  1.000000000

  Length of vectors
     0.125000000  0.125000000  0.125000000

  Shift w.r.t. Gamma in fractional coordinates (k-lattice)
     0.000000000  0.000000000  0.000000000

 
 Subroutine IBZKPT returns following result:
 ===========================================
 
 Found      1 irreducible k-points:
 
 Following reciprocal coordinates:
            Coordinates               Weight
  0.000000  0.000000  0.000000      1.000000
 
 Following cartesian coordinates:
            Coordinates               Weight
  0.000000  0.000000  0.000000      1.000000
 


--------------------------------------------------------------------------------------------------------




 Dimension of arrays:
   k-points           NKPTS =      1   k-points in BZ     NKDIM =      1   number of bands    NBANDS=      9
   number of dos      NEDOS =    301   number of ions     NIONS =      2
   non local maximal  LDIM  =      4   non local SUM 2l+1 LMDIM =      8
   total plane-waves  NPLWV = 157464
   max r-space proj   IRMAX =      1   max aug-charges    IRDMAX=   2442
   dimension x,y,z NGX =    54 NGY =   54 NGZ =   54
   dimension x,y,z NGXF=   108 NGYF=  108 NGZF=  108
   support grid    NGXF=   108 NGYF=  108 NGZF=  108
   ions per type =               1   1
   NGX,Y,Z   is equivalent  to a cutoff of  11.22, 11.22, 11.22 a.u.
   NGXF,Y,Z  is equivalent  to a cutoff of  22.44, 22.44, 22.44 a.u.

 SYSTEM =  CO dimer in a box                       
 POSCAR =  CO dimer in a box                       

 Startparameter for this run:
   NWRITE =      2    write-flag & timer
   PREC   = normal    normal or accurate (medium, high low for compatibility)
   ISTART =      0    job   : 0-new  1-cont  2-samecut
   ICHARG =      2    charge: 1-file 2-atom 10-const
   ISPIN  =      1    spin polarized calculation?
   LNONCOLLINEAR =      F non collinear calculations
   LSORBIT =      F    spin-orbit coupling
   INIWAV =      1    electr: 0-lowe 1-rand  2-diag
   LASPH  =      F    aspherical Exc in radial PAW
 Electronic Relaxation 1
   ENCUT  =  700.0 eV  51.45 Ry    7.17 a.u.  17.26 17.26 17.26*2*pi/ulx,y,z
   ENINI  =  700.0     initial cutoff
   ENAUG  =  946.8 eV  augmentation charge cutoff
   NELM   =     60;   NELMIN=  2; NELMDL= -5     # of ELM steps 
   EDIFF  = 0.1E-03   stopping-criterion for ELM
   LREAL  =      F    real-space projection
   NLSPLINE    = F    spline interpolate recip. space projectors
   LCOMPAT=      F    compatible to vasp.4.4
   GGA_COMPAT  = T    GGA compatible to vasp.4.4-vasp.4.6
   LMAXPAW     = -100 max onsite density
   LMAXMIX     =    2 max onsite mixed and CHGCAR
   VOSKOWN=      0    Vosko Wilk Nusair interpolation
   ROPT   =    0.00000   0.00000
 Ionic relaxation
   EDIFFG = 0.1E-02   stopping-criterion for IOM
   NSW    =      0    number of steps for IOM
   NBLOCK =      1;   KBLOCK =      1    inner block; outer block 
   IBRION =     -1    ionic relax: 0-MD 1-quasi-New 2-CG
   NFREE  =      0    steps in history (QN), initial steepest desc. (CG)
   ISIF   =      2    stress and relaxation
   IWAVPR =     10    prediction:  0-non 1-charg 2-wave 3-comb
   ISYM   =      2    0-nonsym 1-usesym 2-fastsym
   LCORR  =      T    Harris-Foulkes like correction to forces

   POTIM  = 0.5000    time-step for ionic-motion
   TEIN   =    0.0    initial temperature
   TEBEG  =    0.0;   TEEND  =   0.0 temperature during run
   SMASS  =  -3.00    Nose mass-parameter (am)
   estimated Nose-frequenzy (Omega)   =  0.10E-29 period in steps = 0.13E+47 mass=  -0.146E-26a.u.
   SCALEE = 1.0000    scale energy and forces
   NPACO  =    256;   APACO  = 10.0  distance and # of slots for P.C.
   PSTRESS=    0.0 pullay stress

  Mass of Ions in am
   POMASS =  12.01 16.00
  Ionic Valenz
   ZVAL   =   4.00  6.00
  Atomic Wigner-Seitz radii
   RWIGS  =  -1.00 -1.00
  virtual crystal weights 
   VCA    =   1.00  1.00
   NELECT =      10.0000    total number of electrons
   NUPDOWN=      -1.0000    fix difference up-down

 DOS related values:
   EMIN   =  10.00;   EMAX   =-10.00  energy-range for DOS
   EFERMI =   0.00;   METHOD = LEGACY      
   ISMEAR =     0;   SIGMA  =   0.20  broadening in eV -4-tet -1-fermi 0-gaus

 Electronic relaxation 2 (details)
   IALGO  =     38    algorithm
   LDIAG  =      T    sub-space diagonalisation (order eigenvalues)
   LSUBROT=      F    optimize rotation matrix (better conditioning)
   TURBO    =      0    0=normal 1=particle mesh
   IRESTART =      0    0=no restart 2=restart with 2 vectors
   NREBOOT  =      0    no. of reboots
   NMIN     =      0    reboot dimension
   EREF     =   0.00    reference energy to select bands
   IMIX   =      4    mixing-type and parameters
     AMIX     =   0.40;   BMIX     =  1.00
     AMIX_MAG =   1.60;   BMIX_MAG =  1.00
     AMIN     =   0.10
     WC   =   100.;   INIMIX=   1;  MIXPRE=   1;  MAXMIX= -45

 Intra band minimization:
   WEIMIN = 0.0000     energy-eigenvalue tresh-hold
   EBREAK =  0.28E-05  absolut break condition
   DEPER  =   0.30     relativ break condition  

   TIME   =   0.40     timestep for ELM

  volume/ion in A,a.u.               =     256.00      1727.57
  Fermi-wavevector in a.u.,A,eV,Ry     =   0.440878  0.833138  2.644608  0.194373
  Thomas-Fermi vector in A             =   1.415836

 Write flags
   LWAVE        =      T    write WAVECAR
   LDOWNSAMPLE  =      F    k-point downsampling of WAVECAR
   LCHARG       =      T    write CHGCAR
   LVTOT        =      F    write LOCPOT, total local potential
   LVHAR        =      F    write LOCPOT, Hartree potential only
   LELF         =      F    write electronic localiz. function (ELF)
   LORBIT       =     11    0 simple, 1 ext, 2 COOP (PROOUT), +10 PAW based schemes


 Dipole corrections
   LMONO  =      F    monopole corrections only (constant potential shift)
   LDIPOL =      F    correct potential (dipole corrections)
   IDIPOL =      0    1-x, 2-y, 3-z, 4-all directions 
   EPSILON=  1.0000000 bulk dielectric constant

 Exchange correlation treatment:
   GGA     =    --    GGA type
   LEXCH   =     8    internal setting for exchange type
   LIBXC   =     F    Libxc                    
   VOSKOWN =     0    Vosko Wilk Nusair interpolation
   LHFCALC =     F    Hartree Fock is set to
   LHFONE  =     F    Hartree Fock one center treatment
   AEXX    =    0.0000 exact exchange contribution

 Linear response parameters
   LEPSILON=     F    determine dielectric tensor
   LRPA    =     F    only Hartree local field effects (RPA)
   LNABLA  =     F    use nabla operator in PAW spheres
   LVEL    =     F    velocity operator in full k-point grid
   CSHIFT  =0.1000    complex shift for real part using Kramers Kronig
   OMEGAMAX=  -1.0    maximum frequency
   DEG_THRESHOLD= 0.2000000E-02 threshold for treating states as degnerate
   RTIME   =   -0.100 relaxation time in fs
  (WPLASMAI=    0.000 imaginary part of plasma frequency in eV, 0.658/RTIME)
   DFIELD  = 0.0000000 0.0000000 0.0000000 field for delta impulse in time

  Optional k-point grid parameters
   LKPOINTS_OPT  =     F    use optional k-point grid
   KPOINTS_OPT_MODE=     1    mode for optional k-point grid

 Orbital magnetization related:
   ORBITALMAG=     F  switch on orbital magnetization
   LCHIMAG   =     F  perturbation theory with respect to B field
   DQ        =  0.001000  dq finite difference perturbation B field
   LLRAUG    =     F  two centre corrections for induced B field
   LBONE     =     F  B-component reconstruction in AE one-centre
   LVGVCALC  =     T  calculate vGv susceptibility
   LVGVAPPL  =     F  apply vGv susceptibility instead of pGv for G=0

 Random number generation:
   RANDOM_GENERATOR = DEFAULT
   PCG_SEED         = not used


--------------------------------------------------------------------------------------------------------


 Static calculation
 charge density and potential will be updated during run
 non-spin polarized calculation
 Variant of blocked Davidson
 Davidson routine will perform the subspace rotation
 perform sub-space diagonalisation
    after iterative eigenvector-optimisation
 modified Broyden-mixing scheme, WC =      100.0
 initial mixing is a Kerker type mixing with AMIX =  0.4000 and BMIX =      1.0000
 Hartree-type preconditioning will be used
 using additional bands            4
 reciprocal scheme for non local part
 use partial core corrections
 calculate Harris-corrections to forces   (improved forces if not selfconsistent)
 use gradient corrections 
 use of overlap-Matrix (Vanderbilt PP)
 Gauss-broadening in eV      SIGMA  =   0.20


--------------------------------------------------------------------------------------------------------


  energy-cutoff  :      700.00
  volume of cell :      512.00
      direct lattice vectors                 reciprocal lattice vectors
     8.000000000  0.000000000  0.000000000     0.125000000  0.000000000  0.000000000
     0.000000000  8.000000000  0.000000000     0.000000000  0.125000000  0.000000000
     0.000000000  0.000000000  8.000000000     0.000000000  0.000000000  0.125000000

  length of vectors
     8.000000000  8.000000000  8.000000000     0.125000000  0.125000000  0.125000000



 k-points in units of 2pi/SCALE and weight: Gamma-point only                        
   0.00000000  0.00000000  0.00000000       1.000

 k-points in reciprocal lattice and weights: Gamma-point only                        
   0.00000000  0.00000000  0.00000000       1.000

 position of ions in fractional coordinates (direct lattice) 
   0.00000000  0.00000000  0.00000000
   0.00000000  0.00000000  0.14287500

 position of ions in cartesian coordinates  (Angst):
   0.00000000  0.00000000  0.00000000
   0.00000000  0.00000000  1.14300000



--------------------------------------------------------------------------------------------------------


 use serial FFT for orbitals x direction half grid
 k-point   1 :   0.0000 0.0000 0.0000  plane waves:   10780

 maximum and minimum number of plane-waves per node :     10780    10780

 maximum number of plane-waves:     10780
 maximum index in each direction: 
   IXMAX=   17   IYMAX=   17   IZMAX=   17
   IXMIN=    0   IYMIN=  -17   IZMIN=  -17


 serial   3D FFT for wavefunctions
 parallel 3D FFT for charge:
    minimum data exchange during FFTs selected (reduces bandwidth)


 total amount of memory used by VASP MPI-rank0   154770. kBytes
=======================================================================

   base      :      30000. kBytes
   nonl-proj :       1724. kBytes
   fftplans  :      43668. kBytes
   grid      :      77822. kBytes
   one-center:          3. kBytes
   wavefun   :       1553. kBytes

     INWAV:  cpu time      0.0033: real time      0.0000
 Broyden mixing: mesh for mixing (old mesh)
   NGX = 35   NGY = 35   NGZ = 35
  (NGX  =108   NGY  =108   NGZ  =108)
  gives a total of  42875 points

 initial charge density was supplied:
 charge density of overlapping atoms calculated
 number of electron      10.0000000 magnetization 
 keeping initial charge density in first step


--------------------------------------------------------------------------------------------------------


 Maximum index for augmentation-charges         2152 (set IRDMAX)


--------------------------------------------------------------------------------------------------------


 First call to EWALD:  gamma=   0.222
 Maximum number of real-space cells 3x 3x 3
 Maximum number of reciprocal cells 3x 3x 3

    FEWALD:  cpu time      0.6097: real time      0.0778


--------------------------------------- Ionic step        1  -------------------------------------------




--------------------------------------- Iteration      1(   1)  ---------------------------------------


    POTLOK:  cpu time      1.3967: real time      0.2519
    SETDIJ:  cpu time      0.0296: real time      0.0017
     EDDAV:  cpu time     20.9906: real time      2.6354
       DOS:  cpu time      0.0021: real time      0.0003
    --------------------------------------------
      LOOP:  cpu time     22.4192: real time      2.8894

 eigenvalue-minimisations  :    18
 total energy-change (2. order) : 0.8942522E+02  (-0.3037653E+03)
 number of electron      10.0000000 magnetization 
 augmentation part       10.0000000 magnetization 

 Free energy of the ion-electron system (eV)
  ---------------------------------------------------
  alpha Z        PSCENC =         0.57153965
  Ewald energy   TEWEN  =        48.90784304
  -Hartree energ DENC   =      -511.30202052
  -exchange      EXHF   =         0.00000000
  -V(xc)+E(xc)   XCENC  =        31.57058753
  PAW double counting   =       461.48086075     -457.43960020
  entropy T*S    EENTRO =        -0.00001446
  eigenvalues    EBANDS =       -63.68476154
  atomic energy  EATOM  =       579.32078282
  Solvation  Ediel_sol  =         0.00000000
  ---------------------------------------------------
  free energy    TOTEN  =        89.42521706 eV

  energy without entropy =       89.42523152  energy(sigma->0) =       89.42522429


--------------------------------------------------------------------------------------------------------




--------------------------------------- Iteration      1(   2)  ---------------------------------------


     EDDAV:  cpu time     31.0044: real time      3.8971
       DOS:  cpu time      0.0009: real time      0.0001
    --------------------------------------------
      LOOP:  cpu time     31.0053: real time      3.8973

 eigenvalue-minimisations  :    34
 total energy-change (2. order) :-0.7156402E+02  (-0.7110188E+02)
 number of electron      10.0000000 magnetization 
 augmentation part       10.0000000 magnetization 

 Free energy of the ion-electron system (eV)
  ---------------------------------------------------
  alpha Z        PSCENC =         0.57153965
  Ewald energy   TEWEN  =        48.90784304
  -Hartree energ DENC   =      -511.30202052
  -exchange      EXHF   =         0.00000000
  -V(xc)+E(xc)   XCENC  =        31.57058753
  PAW double counting   =       461.48086075     -457.43960020
  entropy T*S    EENTRO =        -0.00000000
  eigenvalues    EBANDS =      -135.24879845
  atomic energy  EATOM  =       579.32078282
  Solvation  Ediel_sol  =         0.00000000
  ---------------------------------------------------
  free energy    TOTEN  =        17.86119462 eV

  energy without entropy =       17.86119462  energy(sigma->0) =       17.86119462


--------------------------------------------------------------------------------------------------------




--------------------------------------- Iteration      1(   3)  ---------------------------------------


     EDDAV:  cpu time     26.9724: real time      3.3885
       DOS:  cpu time      0.0012: real time      0.0001
    --------------------------------------------
      LOOP:  cpu time     26.9737: real time      3.3887

 eigenvalue-minimisations  :    27
 total energy-change (2. order) :-0.3074154E+02  (-0.3072006E+02)
 number of electron      10.0000000 magnetization 
 augmentation part       10.0000000 magnetization 

 Free energy of the ion-electron system (eV)
  ---------------------------------------------------
  alpha Z        PSCENC =         0.57153965
  Ewald energy   TEWEN  =        48.90784304
  -Hartree energ DENC   =      -511.30202052
  -exchange      EXHF   =         0.00000000
  -V(xc)+E(xc)   XCENC  =        31.57058753
  PAW double counting   =       461.48086075     -457.43960020
  entropy T*S    EENTRO =        -0.00000000
  eigenvalues    EBANDS =      -165.99033801
  atomic energy  EATOM  =       579.32078282
  Solvation  Ediel_sol  =         0.00000000
  ---------------------------------------------------
  free energy    TOTEN  =       -12.88034494 eV

  energy without entropy =      -12.88034494  energy(sigma->0) =      -12.88034494


--------------------------------------------------------------------------------------------------------




--------------------------------------- Iteration      1(   4)  ---------------------------------------


     EDDAV:  cpu time     21.0158: real time      2.6450
       DOS:  cpu time      0.0013: real time      0.0002
    --------------------------------------------
      LOOP:  cpu time     21.0171: real time      2.6451

 eigenvalue-minimisations  :    20
 total energy-change (2. order) :-0.2813087E+01  (-0.2812971E+01)
 number of electron      10.0000000 magnetization 
 augmentation part       10.0000000 magnetization 

 Free energy of the ion-electron system (eV)
  ---------------------------------------------------
  alpha Z        PSCENC =         0.57153965
  Ewald energy   TEWEN  =        48.90784304
  -Hartree energ DENC   =      -511.30202052
  -exchange      EXHF   =         0.00000000
  -V(xc)+E(xc)   XCENC  =        31.57058753
  PAW double counting   =       461.48086075     -457.43960020
  entropy T*S    EENTRO =        -0.00000000
  eigenvalues    EBANDS =      -168.80342506
  atomic energy  EATOM  =       579.32078282
  Solvation  Ediel_sol  =         0.00000000
  ---------------------------------------------------
  free energy    TOTEN  =       -15.69343200 eV

  energy without entropy =      -15.69343200  energy(sigma->0) =      -15.69343200


--------------------------------------------------------------------------------------------------------




--------------------------------------- Iteration      1(   5)  ---------------------------------------


     EDDAV:  cpu time     26.6734: real time      3.3568
       DOS:  cpu time      0.0056: real time      0.0010
    CHARGE:  cpu time      0.7373: real time      0.1012
    MIXING:  cpu time      0.0339: real time      0.0149
    --------------------------------------------
      LOOP:  cpu time     27.4501: real time      3.4739

 eigenvalue-minimisations  :    28
 total energy-change (2. order) :-0.4756722E-01  (-0.4756584E-01)
 number of electron      10.0000003 magnetization 
 augmentation part        0.0097988 magnetization 

 Broyden mixing:
  rms(total) = 0.29674E+01    rms(broyden)= 0.29674E+01
  rms(prec ) = 0.30192E+01
  weight for this iteration     100.00

 Free energy of the ion-electron system (eV)
  ---------------------------------------------------
  alpha Z        PSCENC =         0.57153965
  Ewald energy   TEWEN  =        48.90784304
  -Hartree energ DENC   =      -511.30202052
  -exchange      EXHF   =         0.00000000
  -V(xc)+E(xc)   XCENC  =        31.57058753
  PAW double counting   =       461.48086075     -457.43960020
  entropy T*S    EENTRO =        -0.00000000
  eigenvalues    EBANDS =      -168.85099228
  atomic energy  EATOM  =       579.32078282
  Solvation  Ediel_sol  =         0.00000000
  ---------------------------------------------------
  free energy    TOTEN  =       -15.74099921 eV

  energy without entropy =      -15.74099921  energy(sigma->0) =      -15.74099921


--------------------------------------------------------------------------------------------------------




--------------------------------------- Iteration      1(   6)  ---------------------------------------


    POTLOK:  cpu time      1.3644: real time      0.2434
    SETDIJ:  cpu time      0.0015: real time      0.0015
     EDDAV:  cpu time     20.6453: real time      2.6095
       DOS:  cpu time      0.0020: real time      0.0003
    CHARGE:  cpu time      0.6878: real time      0.0980
    MIXING:  cpu time      0.0374: real time      0.0155
    --------------------------------------------
      LOOP:  cpu time     22.7383: real time      2.9681

 eigenvalue-minimisations  :    19
 total energy-change (2. order) : 0.6446046E+00  (-0.3273307E+00)
 number of electron      10.0000002 magnetization 
 augmentation part       -0.0152486 magnetization 

 Broyden mixing:
  rms(total) = 0.19973E+01    rms(broyden)= 0.19973E+01
  rms(prec ) = 0.20144E+01
  weight for this iteration     100.00

 eigenvalues of (default mixing * dielectric matrix)
  average eigenvalue GAMMA=   2.4059
  2.4059

 Free energy of the ion-electron system (eV)
  ---------------------------------------------------
  alpha Z        PSCENC =         0.57153965
  Ewald energy   TEWEN  =        48.90784304
  -Hartree energ DENC   =      -525.26881245
  -exchange      EXHF   =         0.00000000
  -V(xc)+E(xc)   XCENC  =        32.36482256
  PAW double counting   =      2232.89943904    -2229.05405757
  entropy T*S    EENTRO =        -0.00000000
  eigenvalues    EBANDS =      -154.83795174
  atomic energy  EATOM  =       579.32078282
  Solvation  Ediel_sol  =         0.00000000
  ---------------------------------------------------
  free energy    TOTEN  =       -15.09639466 eV

  energy without entropy =      -15.09639466  energy(sigma->0) =      -15.09639466


--------------------------------------------------------------------------------------------------------




--------------------------------------- Iteration      1(   7)  ---------------------------------------


    POTLOK:  cpu time      1.3015: real time      0.2375
    SETDIJ:  cpu time      0.0262: real time      0.0014
     EDDAV:  cpu time     28.0804: real time      3.5233
       DOS:  cpu time      0.0020: real time      0.0003
    CHARGE:  cpu time      0.7143: real time      0.0996
    MIXING:  cpu time      0.0520: real time      0.0160
    --------------------------------------------
      LOOP:  cpu time     30.1764: real time      3.8781

 eigenvalue-minimisations  :    28
 total energy-change (2. order) : 0.5653304E-01  (-0.2644811E+00)
 number of electron      10.0000002 magnetization 
 augmentation part        0.0024274 magnetization 

 Broyden mixing:
  rms(total) = 0.26608E+00    rms(broyden)= 0.26601E+00
  rms(prec ) = 0.37300E+00
  weight for this iteration     100.00

 eigenvalues of (default mixing * dielectric matrix)
  average eigenvalue GAMMA=   1.5579
  0.8136  2.3023

 Free energy of the ion-electron system (eV)
  ---------------------------------------------------
  alpha Z        PSCENC =         0.57153965
  Ewald energy   TEWEN  =        48.90784304
  -Hartree energ DENC   =      -529.75753895
  -exchange      EXHF   =         0.00000000
  -V(xc)+E(xc)   XCENC  =        32.67785589
  PAW double counting   =      7400.69214126    -7396.85726949
  entropy T*S    EENTRO =        -0.00000000
  eigenvalues    EBANDS =      -150.59521584
  atomic energy  EATOM  =       579.32078282
  Solvation  Ediel_sol  =         0.00000000
  ---------------------------------------------------
  free energy    TOTEN  =       -15.03986162 eV

  energy without entropy =      -15.03986162  energy(sigma->0) =      -15.03986162


--------------------------------------------------------------------------------------------------------




--------------------------------------- Iteration      1(   8)  ---------------------------------------


    POTLOK:  cpu time      1.2933: real time      0.2377
    SETDIJ:  cpu time      0.0014: real time      0.0014
     EDDAV:  cpu time     18.3236: real time      2.3107
       DOS:  cpu time      0.0013: real time      0.0001
    CHARGE:  cpu time      0.2577: real time      0.0416
    MIXING:  cpu time      0.0872: real time      0.0290
    --------------------------------------------
      LOOP:  cpu time     19.9645: real time      2.6206

 eigenvalue-minimisations  :    19
 total energy-change (2. order) : 0.1193189E+00  (-0.8274623E-01)
 number of electron      10.0000002 magnetization 
 augmentation part       -0.0106194 magnetization 

 Broyden mixing:
  rms(total) = 0.22858E+00    rms(broyden)= 0.22853E+00
  rms(prec ) = 0.23198E+00
  weight for this iteration     100.00

 eigenvalues of (default mixing * dielectric matrix)
  average eigenvalue GAMMA=   1.3894
  2.6188  0.8286  0.7207

 Free energy of the ion-electron system (eV)
  ---------------------------------------------------
  alpha Z        PSCENC =         0.57153965
  Ewald energy   TEWEN  =        48.90784304
  -Hartree energ DENC   =      -532.56377440
  -exchange      EXHF   =         0.00000000
  -V(xc)+E(xc)   XCENC  =        32.83162320
  PAW double counting   =      7999.25243297    -7995.45252912
  entropy T*S    EENTRO =        -0.00000000
  eigenvalues    EBANDS =      -147.78846086
  atomic energy  EATOM  =       579.32078282
  Solvation  Ediel_sol  =         0.00000000
  ---------------------------------------------------
  free energy    TOTEN  =       -14.92054269 eV

  energy without entropy =      -14.92054269  energy(sigma->0) =      -14.92054269


--------------------------------------------------------------------------------------------------------




--------------------------------------- Iteration      1(   9)  ---------------------------------------


    POTLOK:  cpu time      1.2939: real time      0.2377
    SETDIJ:  cpu time      0.0015: real time      0.0015
     EDDAV:  cpu time     20.4339: real time      2.5715
       DOS:  cpu time      0.0024: real time      0.0003
    CHARGE:  cpu time      0.7053: real time      0.0969
    MIXING:  cpu time      0.0441: real time      0.0173
    --------------------------------------------
      LOOP:  cpu time     22.4810: real time      2.9252

 eigenvalue-minimisations  :    18
 total energy-change (2. order) :-0.2244761E-02  (-0.3002415E-02)
 number of electron      10.0000002 magnetization 
 augmentation part       -0.0107143 magnetization 

 Broyden mixing:
  rms(total) = 0.40792E-01    rms(broyden)= 0.40773E-01
  rms(prec ) = 0.49450E-01
  weight for this iteration     100.00

 eigenvalues of (default mixing * dielectric matrix)
  average eigenvalue GAMMA=   1.3170
  2.4173  1.1107  0.8699  0.8699

 Free energy of the ion-electron system (eV)
  ---------------------------------------------------
  alpha Z        PSCENC =         0.57153965
  Ewald energy   TEWEN  =        48.90784304
  -Hartree energ DENC   =      -532.55800756
  -exchange      EXHF   =         0.00000000
  -V(xc)+E(xc)   XCENC  =        32.83518388
  PAW double counting   =      8773.61182203    -8769.80064267
  entropy T*S    EENTRO =        -0.00000000
  eigenvalues    EBANDS =      -147.81130864
  atomic energy  EATOM  =       579.32078282
  Solvation  Ediel_sol  =         0.00000000
  ---------------------------------------------------
  free energy    TOTEN  =       -14.92278745 eV

  energy without entropy =      -14.92278745  energy(sigma->0) =      -14.92278745


--------------------------------------------------------------------------------------------------------




--------------------------------------- Iteration      1(  10)  ---------------------------------------


    POTLOK:  cpu time      1.2883: real time      0.2367
    SETDIJ:  cpu time      0.0014: real time      0.0014
     EDDAV:  cpu time     26.7009: real time      3.3584
       DOS:  cpu time      0.0008: real time      0.0001
    CHARGE:  cpu time      0.7233: real time      0.1005
    MIXING:  cpu time      0.0478: real time      0.0180
    --------------------------------------------
      LOOP:  cpu time     28.7625: real time      3.7151

 eigenvalue-minimisations  :    26
 total energy-change (2. order) : 0.1161928E-03  (-0.7813403E-03)
 number of electron      10.0000002 magnetization 
 augmentation part       -0.0100378 magnetization 

 Broyden mixing:
  rms(total) = 0.52528E-01    rms(broyden)= 0.52527E-01
  rms(prec ) = 0.53909E-01
  weight for this iteration     100.00

 eigenvalues of (default mixing * dielectric matrix)
  average eigenvalue GAMMA=   1.5617
  2.7666  2.0027  1.5409  0.7492  0.7492

 Free energy of the ion-electron system (eV)
  ---------------------------------------------------
  alpha Z        PSCENC =         0.57153965
  Ewald energy   TEWEN  =        48.90784304
  -Hartree energ DENC   =      -531.73968627
  -exchange      EXHF   =         0.00000000
  -V(xc)+E(xc)   XCENC  =        32.78243169
  PAW double counting   =      8455.91326517    -8452.08998125
  entropy T*S    EENTRO =        -0.00000000
  eigenvalues    EBANDS =      -148.58886611
  atomic energy  EATOM  =       579.32078282
  Solvation  Ediel_sol  =         0.00000000
  ---------------------------------------------------
  free energy    TOTEN  =       -14.92267126 eV

  energy without entropy =      -14.92267126  energy(sigma->0) =      -14.92267126


--------------------------------------------------------------------------------------------------------




--------------------------------------- Iteration      1(  11)  ---------------------------------------


    POTLOK:  cpu time      1.2823: real time      0.2387
    SETDIJ:  cpu time      0.0294: real time      0.0014
     EDDAV:  cpu time     20.9366: real time      2.6295
       DOS:  cpu time      0.0013: real time      0.0002
    CHARGE:  cpu time      0.7173: real time      0.0988
    MIXING:  cpu time      0.0528: real time      0.0188
    --------------------------------------------
      LOOP:  cpu time     23.0196: real time      2.9874

 eigenvalue-minimisations  :    18
 total energy-change (2. order) :-0.1577198E-02  (-0.4271859E-04)
 number of electron      10.0000002 magnetization 
 augmentation part       -0.0098613 magnetization 

 Broyden mixing:
  rms(total) = 0.18207E-01    rms(broyden)= 0.18206E-01
  rms(prec ) = 0.19831E-01
  weight for this iteration     100.00

 eigenvalues of (default mixing * dielectric matrix)
  average eigenvalue GAMMA=   1.4160
  2.3086  2.3086  1.5195  0.7881  0.7881  0.7828

 Free energy of the ion-electron system (eV)
  ---------------------------------------------------
  alpha Z        PSCENC =         0.57153965
  Ewald energy   TEWEN  =        48.90784304
  -Hartree energ DENC   =      -531.90228025
  -exchange      EXHF   =         0.00000000
  -V(xc)+E(xc)   XCENC  =        32.78682949
  PAW double counting   =      8588.25183714    -8584.42595050
  entropy T*S    EENTRO =        -0.00000000
  eigenvalues    EBANDS =      -148.43484985
  atomic energy  EATOM  =       579.32078282
  Solvation  Ediel_sol  =         0.00000000
  ---------------------------------------------------
  free energy    TOTEN  =       -14.92424846 eV

  energy without entropy =      -14.92424846  energy(sigma->0) =      -14.92424846


--------------------------------------------------------------------------------------------------------




--------------------------------------- Iteration      1(  12)  ---------------------------------------


    POTLOK:  cpu time      1.3159: real time      0.2425
    SETDIJ:  cpu time      0.0294: real time      0.0014
     EDDAV:  cpu time     22.0714: real time      2.7697
       DOS:  cpu time      0.0045: real time      0.0003
    CHARGE:  cpu time      0.7155: real time      0.0986
    MIXING:  cpu time      0.0512: real time      0.0197
    --------------------------------------------
      LOOP:  cpu time     24.1880: real time      3.1323

 eigenvalue-minimisations  :    20
 total energy-change (2. order) :-0.4941460E-03  (-0.3084279E-04)
 number of electron      10.0000002 magnetization 
 augmentation part       -0.0101238 magnetization 

 Broyden mixing:
  rms(total) = 0.71172E-02    rms(broyden)= 0.71163E-02
  rms(prec ) = 0.88851E-02
  weight for this iteration     100.00

 eigenvalues of (default mixing * dielectric matrix)
  average eigenvalue GAMMA=   1.5038
  2.3935  2.3935  1.6287  1.6287  0.9478  0.7673  0.7673

 Free energy of the ion-electron system (eV)
  ---------------------------------------------------
  alpha Z        PSCENC =         0.57153965
  Ewald energy   TEWEN  =        48.90784304
  -Hartree energ DENC   =      -531.93980965
  -exchange      EXHF   =         0.00000000
  -V(xc)+E(xc)   XCENC  =        32.78733942
  PAW double counting   =      8516.79864056    -8512.97335994
  entropy T*S    EENTRO =        -0.00000000
  eigenvalues    EBANDS =      -148.39771850
  atomic energy  EATOM  =       579.32078282
  Solvation  Ediel_sol  =         0.00000000
  ---------------------------------------------------
  free energy    TOTEN  =       -14.92474260 eV

  energy without entropy =      -14.92474260  energy(sigma->0) =      -14.92474260


--------------------------------------------------------------------------------------------------------




--------------------------------------- Iteration      1(  13)  ---------------------------------------


    POTLOK:  cpu time      1.3194: real time      0.2408
    SETDIJ:  cpu time      0.0015: real time      0.0014
     EDDAV:  cpu time     18.4766: real time      2.3162
       DOS:  cpu time      0.0012: real time      0.0002
    CHARGE:  cpu time      0.5377: real time      0.0674
    MIXING:  cpu time      0.1137: real time      0.0257
    --------------------------------------------
      LOOP:  cpu time     20.4501: real time      2.6517

 eigenvalue-minimisations  :    18
 total energy-change (2. order) :-0.1313513E-02  (-0.1682425E-04)
 number of electron      10.0000002 magnetization 
 augmentation part       -0.0101708 magnetization 

 Broyden mixing:
  rms(total) = 0.23856E-02    rms(broyden)= 0.23850E-02
  rms(prec ) = 0.35219E-02
  weight for this iteration     100.00

 eigenvalues of (default mixing * dielectric matrix)
  average eigenvalue GAMMA=   1.5599
  3.3080  2.4580  1.9257  1.5802  0.8495  0.8495  0.7543  0.7543

 Free energy of the ion-electron system (eV)
  ---------------------------------------------------
  alpha Z        PSCENC =         0.57153965
  Ewald energy   TEWEN  =        48.90784304
  -Hartree energ DENC   =      -532.06096440
  -exchange      EXHF   =         0.00000000
  -V(xc)+E(xc)   XCENC  =        32.79105163
  PAW double counting   =      8548.43647225    -8544.61025429
  entropy T*S    EENTRO =        -0.00000000
  eigenvalues    EBANDS =      -148.28252682
  atomic energy  EATOM  =       579.32078282
  Solvation  Ediel_sol  =         0.00000000
  ---------------------------------------------------
  free energy    TOTEN  =       -14.92605612 eV

  energy without entropy =      -14.92605612  energy(sigma->0) =      -14.92605612


--------------------------------------------------------------------------------------------------------




--------------------------------------- Iteration      1(  14)  ---------------------------------------


    POTLOK:  cpu time      1.2993: real time      0.2382
    SETDIJ:  cpu time      0.0297: real time      0.0017
     EDDAV:  cpu time     22.6928: real time      2.8529
       DOS:  cpu time      0.0007: real time      0.0001
    CHARGE:  cpu time      0.7071: real time      0.0995
    MIXING:  cpu time      0.0475: real time      0.0218
    --------------------------------------------
      LOOP:  cpu time     24.7771: real time      3.2142

 eigenvalue-minimisations  :    20
 total energy-change (2. order) :-0.4687510E-03  (-0.4430777E-05)
 number of electron      10.0000002 magnetization 
 augmentation part       -0.0101749 magnetization 

 Broyden mixing:
  rms(total) = 0.36710E-02    rms(broyden)= 0.36710E-02
  rms(prec ) = 0.40202E-02
  weight for this iteration     100.00

 eigenvalues of (default mixing * dielectric matrix)
  average eigenvalue GAMMA=   1.6538
  3.3279  2.2790  2.1822  2.1822  1.4662  1.0287  0.7702  0.7702  0.8778

 Free energy of the ion-electron system (eV)
  ---------------------------------------------------
  alpha Z        PSCENC =         0.57153965
  Ewald energy   TEWEN  =        48.90784304
  -Hartree energ DENC   =      -532.11998861
  -exchange      EXHF   =         0.00000000
  -V(xc)+E(xc)   XCENC  =        32.79285995
  PAW double counting   =      8552.30701664    -8548.48080997
  entropy T*S    EENTRO =        -0.00000000
  eigenvalues    EBANDS =      -148.22576838
  atomic energy  EATOM  =       579.32078282
  Solvation  Ediel_sol  =         0.00000000
  ---------------------------------------------------
  free energy    TOTEN  =       -14.92652487 eV

  energy without entropy =      -14.92652487  energy(sigma->0) =      -14.92652487


--------------------------------------------------------------------------------------------------------




--------------------------------------- Iteration      1(  15)  ---------------------------------------


    POTLOK:  cpu time      1.3214: real time      0.2392
    SETDIJ:  cpu time      0.0014: real time      0.0014
     EDDAV:  cpu time     21.6830: real time      2.7233
       DOS:  cpu time      0.0028: real time      0.0004
    CHARGE:  cpu time      0.3591: real time      0.0542
    MIXING:  cpu time      0.0842: real time      0.0342
    --------------------------------------------
      LOOP:  cpu time     23.4520: real time      3.0527

 eigenvalue-minimisations  :    20
 total energy-change (2. order) :-0.3667753E-03  (-0.5836667E-05)
 number of electron      10.0000002 magnetization 
 augmentation part       -0.0101132 magnetization 

 Broyden mixing:
  rms(total) = 0.21297E-02    rms(broyden)= 0.21295E-02
  rms(prec ) = 0.21879E-02
  weight for this iteration     100.00

 eigenvalues of (default mixing * dielectric matrix)
  average eigenvalue GAMMA=   1.7559
  4.9876  2.2678  2.2678  2.2740  1.4630  0.9867  0.9867  0.7740  0.7740  0.7771

 Free energy of the ion-electron system (eV)
  ---------------------------------------------------
  alpha Z        PSCENC =         0.57153965
  Ewald energy   TEWEN  =        48.90784304
  -Hartree energ DENC   =      -532.12572087
  -exchange      EXHF   =         0.00000000
  -V(xc)+E(xc)   XCENC  =        32.79237708
  PAW double counting   =      8549.48062069    -8545.65454665
  entropy T*S    EENTRO =        -0.00000000
  eigenvalues    EBANDS =      -148.21978740
  atomic energy  EATOM  =       579.32078282
  Solvation  Ediel_sol  =         0.00000000
  ---------------------------------------------------
  free energy    TOTEN  =       -14.92689164 eV

  energy without entropy =      -14.92689164  energy(sigma->0) =      -14.92689164


--------------------------------------------------------------------------------------------------------




--------------------------------------- Iteration      1(  16)  ---------------------------------------


    POTLOK:  cpu time      1.3499: real time      0.2441
    SETDIJ:  cpu time      0.0295: real time      0.0015
     EDDAV:  cpu time     22.0773: real time      2.7830
       DOS:  cpu time      0.0040: real time      0.0003
    --------------------------------------------
      LOOP:  cpu time     23.4607: real time      3.0289

 eigenvalue-minimisations  :    20
 total energy-change (2. order) :-0.8232694E-04  (-0.4726675E-06)
 number of electron      10.0000002 magnetization 
 augmentation part       -0.0101132 magnetization 

 Free energy of the ion-electron system (eV)
  ---------------------------------------------------
  alpha Z        PSCENC =         0.57153965
  Ewald energy   TEWEN  =        48.90784304
  -Hartree energ DENC   =      -532.12484567
  -exchange      EXHF   =         0.00000000
  -V(xc)+E(xc)   XCENC  =        32.79209689
  PAW double counting   =      8546.28638169    -8542.46031560
  entropy T*S    EENTRO =        -0.00000000
  eigenvalues    EBANDS =      -148.22045678
  atomic energy  EATOM  =       579.32078282
  Solvation  Ediel_sol  =         0.00000000
  ---------------------------------------------------
  free energy    TOTEN  =       -14.92697397 eV

  energy without entropy =      -14.92697397  energy(sigma->0) =      -14.92697397


--------------------------------------------------------------------------------------------------------




 average (electrostatic) potential at core
  the test charge radii are     0.5770  0.5955
  (the norm of the test charge is              1.0000)
       1 -88.8545       2-122.2885



 E-fermi :  -7.7740     XC(G=0):  -1.1837     alpha+bet : -0.3665

 Fermi energy:        -7.7739624025

 k-point     1 :       0.0000    0.0000    0.0000
  band No.  band energies     occupation 
      1     -28.8282      2.00000
      2     -13.7840      2.00000
      3     -11.3824      2.00000
      4     -11.3824      2.00000
      5      -8.7331      2.00000
      6      -1.7833      0.00000
      7      -1.7833      0.00000
      8      -0.2246      0.00000
      9       1.7518      0.00000


--------------------------------------------------------------------------------------------------------


 soft charge-density along one line, spin component           1
         0         1         2         3         4         5         6         7         8         9
 total charge-density along one line

 pseudopotential strength for first ion, spin component:           1
 12.823  21.581  -0.000   0.049   0.000  -0.000   0.087   0.000
 21.581  36.321  -0.000   0.082   0.000  -0.000   0.146   0.000
 -0.000  -0.000  -3.223   0.000   0.000  -5.780   0.000   0.000
  0.049   0.082   0.000  -3.218   0.000   0.000  -5.772   0.000
  0.000   0.000   0.000   0.000  -3.223   0.000   0.000  -5.780
 -0.000  -0.000  -5.780   0.000   0.000 -10.344   0.000   0.000
  0.087   0.146   0.000  -5.772   0.000   0.000 -10.331   0.000
  0.000   0.000   0.000   0.000  -5.780   0.000   0.000 -10.344
 total augmentation occupancy for first ion, spin component:           1
  6.933  -2.445  -0.000   6.427   0.000   0.000  -2.942  -0.000
 -2.445   1.107  -0.000  -3.321   0.000   0.000   1.401   0.000
 -0.000   0.000   3.174   0.000   0.000  -1.019  -0.000   0.000
  6.427  -3.321   0.000  12.367  -0.000   0.000  -4.752  -0.000
  0.000   0.000   0.000  -0.000   3.174   0.000   0.000  -1.019
  0.000   0.000  -1.019   0.000   0.000   0.327  -0.000   0.000
 -2.942   1.401   0.000  -4.752  -0.000   0.000   1.901  -0.000
 -0.000   0.000   0.000   0.000  -1.019   0.000   0.000   0.327


------------------------ aborting loop because EDIFF is reached ----------------------------------------





 total charge

# of ion       s       p       d       tot
------------------------------------------
    1        0.582   0.845   0.000   1.427
    2        1.087   2.372   0.000   3.459
--------------------------------------------------
tot          1.668   3.217   0.000   4.886

    CHARGE:  cpu time      0.7044: real time      0.0975
    FORLOC:  cpu time      0.0431: real time      0.0087
    FORNL :  cpu time      0.0470: real time      0.0096
    STRESS:  cpu time      2.8709: real time      0.4417
    FORCOR:  cpu time      1.3970: real time      0.2755
    FORHAR:  cpu time      0.3432: real time      0.0946
    MIXING:  cpu time      0.0893: real time      0.0245
    OFIELD:  cpu time      0.0000: real time      0.0000

  FORCE on cell =-STRESS in cart. coord.  units (eV):
  Direction    XX          YY          ZZ          XY          YZ          ZX
  --------------------------------------------------------------------------------------
  Alpha Z     0.57154     0.57154     0.57154
  Ewald     -86.00472   -86.00472   220.91723     0.00000     0.00000     0.00000
  Hartree   140.37681   140.37681   251.36361    -0.00000    -0.00000    -0.00000
  E(xc)     -45.83282   -45.83282   -45.04851     0.00000    -0.00000    -0.00000
  Local    -254.63383  -254.63383  -653.89121     0.00000    -0.00000    -0.00000
  n-local    -2.47018    -2.47018    -7.21123    -0.00000    -0.00000     0.00000
  augment     0.45325     0.45325     0.66651    -0.00000     0.00000     0.00000
  Kinetic   246.10696   246.10696   230.08687     0.00000     0.00000    -0.00000
  Fock        0.00000     0.00000     0.00000     0.00000     0.00000     0.00000
  -------------------------------------------------------------------------------------
  Total      -1.43299    -1.43299    -2.54519     0.00000     0.00000     0.00000
  in kB      -4.48420    -4.48420    -7.96454     0.00000     0.00000     0.00000
  external pressure =       -5.64 kB  Pullay stress =        0.00 kB


 VOLUME and BASIS-vectors are now :
 -----------------------------------------------------------------------------
  energy-cutoff  :      700.00
  volume of cell :      512.00
      direct lattice vectors                 reciprocal lattice vectors
     8.000000000  0.000000000  0.000000000     0.125000000  0.000000000  0.000000000
     0.000000000  8.000000000  0.000000000     0.000000000  0.125000000  0.000000000
     0.000000000  0.000000000  8.000000000     0.000000000  0.000000000  0.125000000

  length of vectors
     8.000000000  8.000000000  8.000000000     0.125000000  0.125000000  0.125000000


 FORCES acting on ions
    electron-ion (+dipol)            ewald-force                    non-local-force                 convergence-correction
 -----------------------------------------------------------------------------------------------
   0.225E-14 0.469E-13 0.235E+03   -.119E-15 -.944E-16 -.261E+03   0.529E-22 0.000E+00 0.270E+02   0.334E-14 0.848E-14 -.367E-02
   0.215E-14 0.115E-13 -.211E+03   0.741E-16 0.142E-15 0.261E+03   0.000E+00 0.000E+00 -.513E+02   -.592E-14 0.210E-15 -.816E-02
 -----------------------------------------------------------------------------------------------
   0.440E-14 0.584E-13 0.243E+02   -.451E-16 0.475E-16 0.000E+00   0.529E-22 0.000E+00 -.243E+02   -.259E-14 0.869E-14 -.118E-01


 POSITION                                       TOTAL-FORCE (eV/Angst)
 -----------------------------------------------------------------------------------
      0.00000      0.00000      0.00000        -0.000000      0.000000      0.868023
      0.00000      0.00000      1.14300         0.000000     -0.000000     -0.868023
 -----------------------------------------------------------------------------------
    total drift:                                0.000000      0.000000     -0.002202


--------------------------------------------------------------------------------------------------------



  FREE ENERGIE OF THE ION-ELECTRON SYSTEM (eV)
  ---------------------------------------------------
  free  energy   TOTEN  =       -14.92697397 eV

  energy  without entropy=      -14.92697397  energy(sigma->0) =      -14.92697397



--------------------------------------------------------------------------------------------------------


    POTLOK:  cpu time      1.4038: real time      0.2491


--------------------------------------------------------------------------------------------------------


 writing wavefunctions
     LOOP+:  cpu time    400.2832: real time     52.6421
    4ORBIT:  cpu time      0.0000: real time      0.0000



 total charge

# of ion       s       p       d       tot
------------------------------------------
    1        0.582   0.845   0.000   1.427
    2        1.087   2.372   0.000   3.459
--------------------------------------------------
tot          1.668   3.217   0.000   4.886


 total amount of memory used by VASP MPI-rank0   154770. kBytes
=======================================================================

   base      :      30000. kBytes
   nonl-proj :       1724. kBytes
   fftplans  :      43668. kBytes
   grid      :      77822. kBytes
   one-center:          3. kBytes
   wavefun   :       1553. kBytes

  
  
 General timing and accounting informations for this job:
 ========================================================
  
                  Total CPU time used (sec):      411.842
                            User time (sec):      299.098
                          System time (sec):      112.745
                         Elapsed time (sec):       57.231
  
                   Maximum memory used (kb):      289072.
                   Average memory used (kb):          N/A
  
                          Minor page faults:        27091
                          Major page faults:            4
                 Voluntary context switches:        83553
