PROCAR lm decomposed
# of k-points:    1         # of bands:    9         # of ions:    2

 k-point     1 :    0.00000000 0.00000000 0.00000000     weight = 1.00000000

band     1 # energy  -28.82824263 # occ.  2.00000000

ion      s     py     pz     px    dxy    dyz    dz2    dxz  x2-y2    tot
    1  0.079  0.000  0.064  0.000  0.000  0.000  0.000  0.000  0.000  0.143
    2  0.419  0.000  0.055  0.000  0.000  0.000  0.000  0.000  0.000  0.474
tot    0.499  0.000  0.119  0.000  0.000  0.000  0.000  0.000  0.000  0.617

band     2 # energy  -13.78403560 # occ.  2.00000000

ion      s     py     pz     px    dxy    dyz    dz2    dxz  x2-y2    tot
    1  0.109  0.000  0.013  0.000  0.000  0.000  0.000  0.000  0.000  0.121
    2  0.123  0.000  0.293  0.000  0.000  0.000  0.000  0.000  0.000  0.416
tot    0.232  0.000  0.306  0.000  0.000  0.000  0.000  0.000  0.000  0.538

band     3 # energy  -11.38244006 # occ.  2.00000000

ion      s     py     pz     px    dxy    dyz    dz2    dxz  x2-y2    tot
    1  0.000  0.000  0.000  0.092  0.000  0.000  0.000  0.000  0.000  0.092
    2  0.000  0.000  0.000  0.370  0.000  0.000  0.000  0.000  0.000  0.370
tot    0.000  0.000  0.000  0.462  0.000  0.000  0.000  0.000  0.000  0.462

band     4 # energy  -11.38244006 # occ.  2.00000000

ion      s     py     pz     px    dxy    dyz    dz2    dxz  x2-y2    tot
    1  0.000  0.092  0.000  0.000  0.000  0.000  0.000  0.000  0.000  0.092
    2  0.000  0.370  0.000  0.000  0.000  0.000  0.000  0.000  0.000  0.370
tot    0.000  0.462  0.000  0.000  0.000  0.000  0.000  0.000  0.000  0.462

band     5 # energy   -8.73307004 # occ.  2.00000000

ion      s     py     pz     px    dxy    dyz    dz2    dxz  x2-y2    tot
    1  0.103  0.000  0.162  0.000  0.000  0.000  0.000  0.000  0.000  0.264
    2  0.001  0.000  0.098  0.000  0.000  0.000  0.000  0.000  0.000  0.099
tot    0.104  0.000  0.259  0.000  0.000  0.000  0.000  0.000  0.000  0.363

band     6 # energy   -1.78326305 # occ.  0.00000000

ion      s     py     pz     px    dxy    dyz    dz2    dxz  x2-y2    tot
    1  0.000  0.190  0.000  0.017  0.000  0.000  0.000  0.000  0.000  0.207
    2  0.000  0.148  0.000  0.013  0.000  0.000  0.000  0.000  0.000  0.161
tot    0.000  0.338  0.000  0.030  0.000  0.000  0.000  0.000  0.000  0.368

band     7 # energy   -1.78326304 # occ.  0.00000000

ion      s     py     pz     px    dxy    dyz    dz2    dxz  x2-y2    tot
    1  0.000  0.017  0.000  0.190  0.000  0.000  0.000  0.000  0.000  0.207
    2  0.000  0.013  0.000  0.148  0.000  0.000  0.000  0.000  0.000  0.161
tot    0.000  0.030  0.000  0.338  0.000  0.000  0.000  0.000  0.000  0.368

band     8 # energy   -0.22459303 # occ.  0.00000000

ion      s     py     pz     px    dxy    dyz    dz2    dxz  x2-y2    tot
    1  0.005  0.000  0.005  0.000  0.000  0.000  0.000  0.000  0.000  0.011
    2  0.003  0.000  0.003  0.000  0.000  0.000  0.000  0.000  0.000  0.006
tot    0.009  0.000  0.008  0.000  0.000  0.000  0.000  0.000  0.000  0.017

band     9 # energy    1.75182693 # occ.  0.00000000

ion      s     py     pz     px    dxy    dyz    dz2    dxz  x2-y2    tot
    1  0.001  0.000  0.000  0.000  0.000  0.000  0.000  0.000  0.000  0.001
    2  0.009  0.000  0.000  0.000  0.000  0.000  0.000  0.000  0.000  0.009
tot    0.010  0.000  0.000  0.000  0.000  0.000  0.000  0.000  0.000  0.010

