<?xml version="1.0" encoding="ISO-8859-1"?>
<modeling>
 <generator>
  <i name="program" type="string">vasp </i>
  <i name="version" type="string">6.4.2  </i>
  <i name="subversion" type="string">20Jul23 (build Nov 21 2024 16:34:56) gamma-only                       parallel </i>
  <i name="platform" type="string">LinuxGNU </i>
  <i name="date" type="string">2025 03 12 </i>
  <i name="time" type="string">19:59:04 </i>
 </generator>
 <incar>
  <i type="string" name="SYSTEM">CO dimer in a box</i>
  <i type="int" name="ISMEAR">     0</i>
  <i type="int" name="LORBIT">    11</i>
 </incar>
 <primitive_cell>
  <structure name="primitive_cell" >
   <crystal>
    <varray name="basis" >
     <v>       8.00000000       0.00000000       0.00000000 </v>
     <v>       0.00000000       8.00000000       0.00000000 </v>
     <v>       0.00000000       0.00000000       8.00000000 </v>
    </varray>
    <i name="volume">    512.00000000 </i>
    <varray name="rec_basis" >
     <v>       0.12500000       0.00000000       0.00000000 </v>
     <v>       0.00000000       0.12500000       0.00000000 </v>
     <v>       0.00000000       0.00000000       0.12500000 </v>
    </varray>
   </crystal>
   <varray name="positions" >
    <v>       0.00000000       0.00000000       0.00000000 </v>
    <v>       0.00000000       0.00000000       0.14287500 </v>
   </varray>
  </structure>
  <varray name="primitive_index" >
   <v type="int" >        1 </v>
   <v type="int" >        2 </v>
  </varray>
 </primitive_cell>
 <kpoints>
  <generation param="Monkhorst-Pack">
   <v type="int" name="divisions">       1        1        1 </v>
   <v name="usershift">      0.00000000       0.00000000       0.00000000 </v>
   <v name="genvec1">      1.00000000       0.00000000       0.00000000 </v>
   <v name="genvec2">      0.00000000       1.00000000       0.00000000 </v>
   <v name="genvec3">      0.00000000       0.00000000       1.00000000 </v>
   <v name="shift">      0.00000000       0.00000000       0.00000000 </v>
  </generation>
  <varray name="kpointlist" >
   <v>       0.00000000       0.00000000       0.00000000 </v>
  </varray>
  <varray name="weights" >
   <v>       1.00000000 </v>
  </varray>
 </kpoints>
 <parameters>
  <separator name="general" >
   <i type="string" name="SYSTEM">CO dimer in a box</i>
   <i type="logical" name="LCOMPAT"> F  </i>
  </separator>
  <separator name="electronic" >
   <i type="string" name="PREC">normal</i>
   <i name="ENMAX">    700.00000000</i>
   <i name="ENAUG">    946.76800000</i>
   <i name="EDIFF">      0.00010000</i>
   <i type="int" name="IALGO">    38</i>
   <i type="int" name="IWAVPR">    10</i>
   <i type="int" name="NBANDS">     9</i>
   <i type="int" name="NBANDSLOW">    -1</i>
   <i type="int" name="NBANDSHIGH">    -1</i>
   <i name="NELECT">     10.00000000</i>
   <i type="int" name="TURBO">     0</i>
   <i type="int" name="IRESTART">     0</i>
   <i type="int" name="NREBOOT">     0</i>
   <i type="int" name="NMIN">     0</i>
   <i name="EREF">      0.00000000</i>
   <separator name="electronic smearing" >
    <i type="int" name="ISMEAR">     0</i>
    <i name="SIGMA">      0.20000000</i>
    <i name="KSPACING">      0.50000000</i>
    <i type="logical" name="KGAMMA"> T  </i>
    <i type="logical" name="KBLOWUP"> T  </i>
   </separator>
   <separator name="electronic projectors" >
    <i type="logical" name="LREAL"> F  </i>
    <v name="ROPT">      0.00000000      0.00000000</v>
    <i type="int" name="LMAXPAW">  -100</i>
    <i type="int" name="LMAXMIX">     2</i>
    <i type="logical" name="NLSPLINE"> F  </i>
   </separator>
   <separator name="electronic startup" >
    <i type="int" name="ISTART">     0</i>
    <i type="int" name="ICHARG">     2</i>
    <i type="int" name="INIWAV">     1</i>
   </separator>
   <separator name="electronic spin" >
    <i type="int" name="ISPIN">     1</i>
    <i type="logical" name="LNONCOLLINEAR"> F  </i>
    <v name="MAGMOM">      1.00000000      1.00000000</v>
    <i name="NUPDOWN">     -1.00000000</i>
    <i type="logical" name="LSORBIT"> F  </i>
    <v name="SAXIS">      0.00000000      0.00000000      1.00000000</v>
    <i type="logical" name="LSPIRAL"> F  </i>
    <v name="QSPIRAL">      0.00000000      0.00000000      0.00000000</v>
    <i type="logical" name="LZEROZ"> F  </i>
   </separator>
   <separator name="electronic exchange-correlation" >
    <i type="logical" name="LASPH"> F  </i>
    <i type="logical" name="LMETAGGA"> F  </i>
   </separator>
   <separator name="electronic convergence" >
    <i type="int" name="NELM">    60</i>
    <i type="int" name="NELMDL">    -5</i>
    <i type="int" name="NELMIN">     2</i>
    <i name="ENINI">    700.00000000</i>
    <separator name="electronic convergence detail" >
     <i type="logical" name="LDIAG"> T  </i>
     <i type="logical" name="LSUBROT"> F  </i>
     <i name="WEIMIN">      0.00000000</i>
     <i name="EBREAK">      0.00000278</i>
     <i name="DEPER">      0.30000000</i>
     <i type="int" name="NRMM">     4</i>
     <i name="TIME">      0.40000000</i>
    </separator>
   </separator>
   <separator name="electronic mixer" >
    <i name="AMIX">      0.40000000</i>
    <i name="BMIX">      1.00000000</i>
    <i name="AMIN">      0.10000000</i>
    <i name="AMIX_MAG">      1.60000000</i>
    <i name="BMIX_MAG">      1.00000000</i>
    <separator name="electronic mixer details" >
     <i type="int" name="IMIX">     4</i>
     <i type="logical" name="MIXFIRST"> F  </i>
     <i type="int" name="MAXMIX">   -45</i>
     <i name="WC">    100.00000000</i>
     <i type="int" name="INIMIX">     1</i>
     <i type="int" name="MIXPRE">     1</i>
     <i type="int" name="MREMOVE">     5</i>
    </separator>
   </separator>
   <separator name="electronic dipolcorrection" >
    <i type="logical" name="LDIPOL"> F  </i>
    <i type="logical" name="LMONO"> F  </i>
    <i type="int" name="IDIPOL">     0</i>
    <i name="EPSILON">      1.00000000</i>
    <v name="DIPOL">   -100.00000000   -100.00000000   -100.00000000</v>
    <i name="EFIELD">      0.00000000</i>
   </separator>
  </separator>
  <separator name="grids" >
   <i type="int" name="NGX">    54</i>
   <i type="int" name="NGY">    54</i>
   <i type="int" name="NGZ">    54</i>
   <i type="int" name="NGXF">   108</i>
   <i type="int" name="NGYF">   108</i>
   <i type="int" name="NGZF">   108</i>
   <i type="logical" name="ADDGRID"> F  </i>
  </separator>
  <separator name="ionic" >
   <i type="int" name="NSW">     0</i>
   <i type="int" name="IBRION">    -1</i>
   <i type="int" name="MDALGO">     0</i>
   <i type="int" name="ISIF">     2</i>
   <i name="PSTRESS">      0.00000000</i>
   <i name="EDIFFG">      0.00100000</i>
   <i type="int" name="NFREE">     0</i>
   <i name="POTIM">      0.50000000</i>
   <i name="SMASS">     -3.00000000</i>
   <i name="SCALEE">      1.00000000</i>
  </separator>
  <separator name="ionic md" >
   <i name="TEBEG">      0.00010000</i>
   <i name="TEEND">      0.00010000</i>
   <i type="int" name="NBLOCK">     1</i>
   <i type="int" name="KBLOCK">     1</i>
   <i type="int" name="NPACO">   256</i>
   <i name="APACO">     10.00000000</i>
  </separator>
  <separator name="symmetry" >
   <i type="int" name="ISYM">     2</i>
   <i name="SYMPREC">      0.00001000</i>
  </separator>
  <separator name="dos" >
   <i type="int" name="LORBIT">    11</i>
   <v name="RWIGS">     -1.00000000     -1.00000000</v>
   <i type="int" name="NEDOS">   301</i>
   <i name="EMIN">     10.00000000</i>
   <i name="EMAX">    -10.00000000</i>
   <i name="EFERMI">      0.00000000</i>
  </separator>
  <separator name="writing" >
   <i type="int" name="NWRITE">     2</i>
   <i type="logical" name="LWAVE"> T  </i>
   <i type="logical" name="LDOWNSAMPLE"> F  </i>
   <i type="logical" name="LCHARG"> T  </i>
   <i type="logical" name="LPARD"> F  </i>
   <i type="logical" name="LVTOT"> F  </i>
   <i type="logical" name="LVHAR"> F  </i>
   <i type="logical" name="LELF"> F  </i>
   <i type="logical" name="LOPTICS"> F  </i>
   <v name="STM">      0.00000000      0.00000000      0.00000000      0.00000000      0.00000000      0.00000000      0.00000000</v>
  </separator>
  <separator name="performance" >
   <i type="int" name="NPAR">     1</i>
   <i type="int" name="NSIM">     4</i>
   <i type="int" name="NBLK">    -1</i>
   <i type="logical" name="LPLANE"> T  </i>
   <i type="logical" name="LSCALAPACK"> T  </i>
   <i type="logical" name="LSCAAWARE"> F  </i>
   <i type="logical" name="LSCALU"> F  </i>
   <i type="logical" name="LASYNC"> F  </i>
   <i type="logical" name="LORBITALREAL"> F  </i>
  </separator>
  <separator name="miscellaneous" >
   <i type="int" name="IDIOT">     3</i>
   <i type="int" name="PHON_NSTRUCT">    -1</i>
   <i type="logical" name="LMUSIC"> F  </i>
   <v name="POMASS">     12.01100000     16.00000000</v>
   <v name="DARWINR">      0.00000000      0.00000000</v>
   <v name="DARWINV">      1.00000000      1.00000000</v>
   <i type="logical" name="LCORR"> T  </i>
  </separator>
  <i type="logical" name="GGA_COMPAT"> T  </i>
  <i type="logical" name="LBERRY"> F  </i>
  <i type="int" name="ICORELEVEL">     0</i>
  <i type="logical" name="LDAU"> F  </i>
  <i type="int" name="I_CONSTRAINED_M">     0</i>
  <separator name="electronic exchange-correlation" >
   <i type="string" name="GGA">--</i>
   <i type="int" name="VOSKOWN">     0</i>
   <i type="logical" name="LHFCALC"> F  </i>
   <i type="string" name="PRECFOCK"></i>
   <i type="logical" name="LSYMGRAD"> F  </i>
   <i type="logical" name="LHFONE"> F  </i>
   <i type="logical" name="LRHFCALC"> F  </i>
   <i type="logical" name="LTHOMAS"> F  </i>
   <i type="logical" name="LMODELHF"> F  </i>
   <i type="logical" name="LFOCKACE"> F  </i>
   <i name="ENCUT4O">     -1.00000000</i>
   <i type="int" name="EXXOEP">     0</i>
   <i type="int" name="FOURORBIT">     0</i>
   <i name="AEXX">      0.00000000</i>
   <i name="HFALPHA">      0.00000000</i>
   <i name="MCALPHA">      0.00000000</i>
   <i name="ALDAX">      1.00000000</i>
   <i name="AGGAX">      1.00000000</i>
   <i name="ALDAC">      1.00000000</i>
   <i name="AGGAC">      1.00000000</i>
   <i type="int" name="NKREDX">     1</i>
   <i type="int" name="NKREDY">     1</i>
   <i type="int" name="NKREDZ">     1</i>
   <i type="logical" name="SHIFTRED"> F  </i>
   <i type="logical" name="ODDONLY"> F  </i>
   <i type="logical" name="EVENONLY"> F  </i>
   <i type="int" name="LMAXFOCK">     0</i>
   <i type="int" name="NMAXFOCKAE">     0</i>
   <i type="logical" name="LFOCKAEDFT"> F  </i>
   <i name="HFSCREEN">      0.00000000</i>
   <i name="HFSCREENC">      0.00000000</i>
   <i type="int" name="NBANDSGWLOW">     0</i>
  </separator>
  <separator name="vdW DFT" >
   <i type="logical" name="LUSE_VDW"> F  </i>
   <i type="int" name="IVDW_NL">     1</i>
   <i type="logical" name="LSPIN_VDW"> F  </i>
   <i name="Zab_VDW">     -0.84910000</i>
   <i name="PARAM1">      0.12340000</i>
   <i name="PARAM2">      1.00000000</i>
   <i name="PARAM3">      0.00000000</i>
  </separator>
  <separator name="model GW" >
   <i type="int" name="MODEL_GW">     0</i>
   <i name="MODEL_EPS0">    153.60000000</i>
   <i name="MODEL_ALPHA">      1.00000000</i>
  </separator>
  <separator name="linear response parameters" >
   <i type="logical" name="LEPSILON"> F  </i>
   <i type="logical" name="LRPA"> F  </i>
   <i type="logical" name="LNABLA"> F  </i>
   <i type="logical" name="LVEL"> F  </i>
   <i name="CSHIFT">      0.10000000</i>
   <i name="OMEGAMAX">     -1.00000000</i>
   <i name="DEG_THRESHOLD">      0.00200000</i>
   <i name="RTIME">     -0.10000000</i>
   <i name="WPLASMAI">      0.00000000</i>
   <v name="DFIELD">      0.00000000      0.00000000      0.00000000</v>
   <v name="WPLASMA">      0.00000000      0.00000000      0.00000000      0.00000000      0.00000000      0.00000000      0.00000000      0.00000000      0.00000000</v>
  </separator>
  <separator name="orbital magnetization" >
   <i type="logical" name="NUCIND"> F  </i>
   <v name="MAGPOS">      0.00000000      0.00000000      0.00000000</v>
   <i type="logical" name="LNICSALL"> T  </i>
   <i type="logical" name="ORBITALMAG"> F  </i>
   <i type="logical" name="LMAGBLOCH"> F  </i>
   <i type="logical" name="LCHIMAG"> F  </i>
   <i type="logical" name="LGAUGE"> T  </i>
   <i type="int" name="MAGATOM">     0</i>
   <v name="MAGDIPOL">      0.00000000      0.00000000      0.00000000</v>
   <v name="AVECCONST">      0.00000000      0.00000000      0.00000000</v>
  </separator>
  <separator name="response functions" >
   <i type="logical" name="LALL_IN_ONE"> F  </i>
   <i type="int" name="IALL_IN_ONE">    -1</i>
   <i type="int" name="NBANDS_WAVE">    -1</i>
   <i type="logical" name="LFINITE_TEMPERATURE"> F  </i>
   <i type="logical" name="LADDER"> F  </i>
   <i type="logical" name="LRPAFORCE"> F  </i>
   <i type="logical" name="LFXC"> F  </i>
   <i type="logical" name="LHARTREE"> T  </i>
   <i type="int" name="IBSE">     0</i>
   <v type="int" name="KPOINT">    -1     0     0     0</v>
   <i type="logical" name="LTCTC"> F  </i>
   <i type="logical" name="LTCTE"> F  </i>
   <i type="logical" name="LTETE"> F  </i>
   <i type="logical" name="LTRIPLET"> F  </i>
   <i type="logical" name="LFXCEPS"> F  </i>
   <i type="logical" name="LFXHEG"> F  </i>
   <i type="int" name="NATURALO">     2</i>
   <i type="logical" name="LHOLEGF"> F  </i>
   <i type="logical" name="L2ORDER"> F  </i>
   <i type="logical" name="LDMP1"> F  </i>
   <i type="logical" name="LMP2LT"> F  </i>
   <i type="logical" name="LSMP2LT"> F  </i>
   <i type="logical" name="LGWLF"> F  </i>
   <i name="ENCUTGW">     -1.60000002</i>
   <i name="ENCUTGWSOFT">     -1.60000002</i>
   <i name="ENCUTLF">     -1.00000000</i>
   <i type="logical" name="LESF_SPLINES"> F  </i>
   <i type="int" name="LMAXMP2">    -1</i>
   <i name="SCISSOR">      0.00000000</i>
   <i type="int" name="NOMEGA">     0</i>
   <i type="int" name="NOMEGAR">     0</i>
   <i type="int" name="NBANDSGW">    -1</i>
   <i type="int" name="NBANDSO">    -1</i>
   <i type="int" name="NBANDSV">    -1</i>
   <i type="int" name="NELMGW">     1</i>
   <i type="int" name="NELMHF">     1</i>
   <i type="int" name="DIM">     3</i>
   <i type="int" name="IESPILON">     4</i>
   <i type="int" name="ANTIRES">     0</i>
   <i name="OMEGAMAX">    -30.00000000</i>
   <i name="OMEGAMIN">    -30.00000000</i>
   <i name="OMEGATL">   -200.00000000</i>
   <i type="int" name="OMEGAGRID">     0</i>
   <i name="CSHIFT">     -0.10000000</i>
   <i type="logical" name="LSELFENERGY"> F  </i>
   <i type="logical" name="LSPECTRAL"> F  </i>
   <i type="logical" name="LSPECTRALGW"> F  </i>
   <i type="logical" name="LSINGLES"> F  </i>
   <i type="logical" name="LFERMIGW"> F  </i>
   <i type="logical" name="ODDONLYGW"> F  </i>
   <i type="logical" name="EVENONLYGW"> F  </i>
   <i type="int" name="NKREDLFX">     1</i>
   <i type="int" name="NKREDLFY">     1</i>
   <i type="int" name="NKREDLFZ">     1</i>
   <i type="int" name="MAXMEM">  2800</i>
   <i type="int" name="TELESCOPE">     0</i>
   <i type="int" name="NTAUPAR">    -1</i>
   <i type="int" name="NOMEGAPAR">    -1</i>
   <i name="DAMP_NEWTON">      0.80000001</i>
   <i name="LAMBDA">      1.00000000</i>
  </separator>
  <separator name="External order field" >
   <i name="OFIELD_KAPPA">      0.00000000</i>
   <v name="OFIELD_K">      0.00000000      0.00000000      0.00000000</v>
   <i name="OFIELD_Q6_NEAR">      0.00000000</i>
   <i name="OFIELD_Q6_FAR">      0.00000000</i>
   <i name="OFIELD_A">      0.00000000</i>
  </separator>
  <separator name="optional k-points parameters" >
   <i type="int" name="KPOINTS_OPT_MODE">     1</i>
   <i type="logical" name="LKPOINTS_OPT"> F  </i>
  </separator>
 </parameters>
 <atominfo>
  <atoms>       2 </atoms>
  <types>       2 </types>
  <array name="atoms" >
   <dimension dim="1">ion</dimension>
   <field type="string">element</field>
   <field type="int">atomtype</field>
   <set>
    <rc><c>C </c><c>   1</c></rc>
    <rc><c>O </c><c>   2</c></rc>
   </set>
  </array>
  <array name="atomtypes" >
   <dimension dim="1">type</dimension>
   <field type="int">atomspertype</field>
   <field type="string">element</field>
   <field>mass</field>
   <field>valence</field>
   <field type="string">pseudopotential</field>
   <set>
    <rc><c>   1</c><c>C </c><c>     12.01100000</c><c>      4.00000000</c><c>  PAW_PBE C_h 06Feb2004                 </c></rc>
    <rc><c>   1</c><c>O </c><c>     16.00000000</c><c>      6.00000000</c><c>  PAW_PBE O_h 06Feb2004                 </c></rc>
   </set>
  </array>
 </atominfo>
 <structure name="initialpos" >
  <crystal>
   <varray name="basis" >
    <v>       8.00000000       0.00000000       0.00000000 </v>
    <v>       0.00000000       8.00000000       0.00000000 </v>
    <v>       0.00000000       0.00000000       8.00000000 </v>
   </varray>
   <i name="volume">    512.00000000 </i>
   <varray name="rec_basis" >
    <v>       0.12500000       0.00000000       0.00000000 </v>
    <v>       0.00000000       0.12500000       0.00000000 </v>
    <v>       0.00000000       0.00000000       0.12500000 </v>
   </varray>
  </crystal>
  <varray name="positions" >
   <v>       0.00000000       0.00000000       0.00000000 </v>
   <v>       0.00000000       0.00000000       0.14287500 </v>
  </varray>
  <varray name="selective"  type="logical" >
   <v type="logical" >  F  F  T </v>
   <v type="logical" >  F  F  T </v>
  </varray>
  <nose>
   <v>      -3.00000000       0.00000000       0.00010000       0.00010000 </v>
  </nose>
 </structure>
 <calculation>
  <scstep>
   <time name="dav">   20.99    2.64</time>
   <time name="total">   22.42    2.89</time>
   <energy>
    <i name="alphaZ">      0.57153965 </i>
    <i name="ewald">     48.90784304 </i>
    <i name="hartreedc">   -511.30202052 </i>
    <i name="XCdc">     31.57058753 </i>
    <i name="pawpsdc">    461.48086075 </i>
    <i name="pawaedc">   -457.43960020 </i>
    <i name="eentropy">     -0.00001446 </i>
    <i name="bandstr">    -63.68476154 </i>
    <i name="atom">    579.32078282 </i>
    <i name="e_fr_energy">     89.42521706 </i>
    <i name="e_wo_entrp">     89.42523152 </i>
    <i name="e_0_energy">     89.42522429 </i>
   </energy>
  </scstep>
  <scstep>
   <time name="dav">   31.00    3.90</time>
   <time name="total">   31.01    3.90</time>
   <energy>
    <i name="e_fr_energy">     17.86119462 </i>
    <i name="e_wo_entrp">     17.86119462 </i>
    <i name="e_0_energy">     17.86119462 </i>
   </energy>
  </scstep>
  <scstep>
   <time name="dav">   26.97    3.39</time>
   <time name="total">   26.97    3.39</time>
   <energy>
    <i name="e_fr_energy">    -12.88034494 </i>
    <i name="e_wo_entrp">    -12.88034494 </i>
    <i name="e_0_energy">    -12.88034494 </i>
   </energy>
  </scstep>
  <scstep>
   <time name="dav">   21.02    2.64</time>
   <time name="total">   21.02    2.65</time>
   <energy>
    <i name="e_fr_energy">    -15.69343200 </i>
    <i name="e_wo_entrp">    -15.69343200 </i>
    <i name="e_0_energy">    -15.69343200 </i>
   </energy>
  </scstep>
  <scstep>
   <time name="dav">   26.67    3.36</time>
   <time name="total">   27.45    3.47</time>
   <energy>
    <i name="e_fr_energy">    -15.74099921 </i>
    <i name="e_wo_entrp">    -15.74099921 </i>
    <i name="e_0_energy">    -15.74099921 </i>
   </energy>
  </scstep>
  <scstep>
   <time name="dav">   20.65    2.61</time>
   <time name="total">   22.74    2.97</time>
   <energy>
    <i name="e_fr_energy">    -15.09639466 </i>
    <i name="e_wo_entrp">    -15.09639466 </i>
    <i name="e_0_energy">    -15.09639466 </i>
   </energy>
  </scstep>
  <scstep>
   <time name="dav">   28.08    3.52</time>
   <time name="total">   30.18    3.88</time>
   <energy>
    <i name="e_fr_energy">    -15.03986162 </i>
    <i name="e_wo_entrp">    -15.03986162 </i>
    <i name="e_0_energy">    -15.03986162 </i>
   </energy>
  </scstep>
  <scstep>
   <time name="dav">   18.32    2.31</time>
   <time name="total">   19.96    2.62</time>
   <energy>
    <i name="e_fr_energy">    -14.92054269 </i>
    <i name="e_wo_entrp">    -14.92054269 </i>
    <i name="e_0_energy">    -14.92054269 </i>
   </energy>
  </scstep>
  <scstep>
   <time name="dav">   20.43    2.57</time>
   <time name="total">   22.48    2.93</time>
   <energy>
    <i name="e_fr_energy">    -14.92278745 </i>
    <i name="e_wo_entrp">    -14.92278745 </i>
    <i name="e_0_energy">    -14.92278745 </i>
   </energy>
  </scstep>
  <scstep>
   <time name="dav">   26.70    3.36</time>
   <time name="total">   28.76    3.72</time>
   <energy>
    <i name="e_fr_energy">    -14.92267126 </i>
    <i name="e_wo_entrp">    -14.92267126 </i>
    <i name="e_0_energy">    -14.92267126 </i>
   </energy>
  </scstep>
  <scstep>
   <time name="dav">   20.94    2.63</time>
   <time name="total">   23.02    2.99</time>
   <energy>
    <i name="e_fr_energy">    -14.92424846 </i>
    <i name="e_wo_entrp">    -14.92424846 </i>
    <i name="e_0_energy">    -14.92424846 </i>
   </energy>
  </scstep>
  <scstep>
   <time name="dav">   22.07    2.77</time>
   <time name="total">   24.19    3.13</time>
   <energy>
    <i name="e_fr_energy">    -14.92474260 </i>
    <i name="e_wo_entrp">    -14.92474260 </i>
    <i name="e_0_energy">    -14.92474260 </i>
   </energy>
  </scstep>
  <scstep>
   <time name="dav">   18.48    2.32</time>
   <time name="total">   20.45    2.65</time>
   <energy>
    <i name="e_fr_energy">    -14.92605612 </i>
    <i name="e_wo_entrp">    -14.92605612 </i>
    <i name="e_0_energy">    -14.92605612 </i>
   </energy>
  </scstep>
  <scstep>
   <time name="dav">   22.69    2.85</time>
   <time name="total">   24.78    3.21</time>
   <energy>
    <i name="e_fr_energy">    -14.92652487 </i>
    <i name="e_wo_entrp">    -14.92652487 </i>
    <i name="e_0_energy">    -14.92652487 </i>
   </energy>
  </scstep>
  <scstep>
   <time name="dav">   21.68    2.72</time>
   <time name="total">   23.45    3.05</time>
   <energy>
    <i name="e_fr_energy">    -14.92689164 </i>
    <i name="e_wo_entrp">    -14.92689164 </i>
    <i name="e_0_energy">    -14.92689164 </i>
   </energy>
  </scstep>
  <scstep>
   <time name="dav">   22.08    2.78</time>
   <time name="total">   23.46    3.03</time>
   <energy>
    <i name="alphaZ">      0.57153965 </i>
    <i name="ewald">     48.90784304 </i>
    <i name="hartreedc">   -532.12484567 </i>
    <i name="XCdc">     32.79209689 </i>
    <i name="pawpsdc">   8546.28638169 </i>
    <i name="pawaedc">  -8542.46031560 </i>
    <i name="eentropy">     -0.00000000 </i>
    <i name="bandstr">   -148.22045678 </i>
    <i name="atom">    579.32078282 </i>
    <i name="e_fr_energy">    -14.92697397 </i>
    <i name="e_wo_entrp">    -14.92697397 </i>
    <i name="e_0_energy">    -14.92697397 </i>
   </energy>
  </scstep>
  <structure>
   <crystal>
    <varray name="basis" >
     <v>       8.00000000       0.00000000       0.00000000 </v>
     <v>       0.00000000       8.00000000       0.00000000 </v>
     <v>       0.00000000       0.00000000       8.00000000 </v>
    </varray>
    <i name="volume">    512.00000000 </i>
    <varray name="rec_basis" >
     <v>       0.12500000       0.00000000       0.00000000 </v>
     <v>       0.00000000       0.12500000       0.00000000 </v>
     <v>       0.00000000       0.00000000       0.12500000 </v>
    </varray>
   </crystal>
   <varray name="positions" >
    <v>       0.00000000       0.00000000       0.00000000 </v>
    <v>       0.00000000       0.00000000       0.14287500 </v>
   </varray>
  </structure>
  <varray name="forces" >
   <v>      -0.00000000       0.00000000       0.86802297 </v>
   <v>       0.00000000      -0.00000000      -0.86802297 </v>
  </varray>
  <varray name="stress" >
   <v>      -4.48420031       0.00000000       0.00000000 </v>
   <v>       0.00000000      -4.48420031      -0.00000000 </v>
   <v>       0.00000000       0.00000000      -7.96454411 </v>
  </varray>
  <energy>
   <i name="e_fr_energy">    -14.92697397 </i>
   <i name="e_wo_entrp">    -14.92697397 </i>
   <i name="e_0_energy">    -14.92697397 </i>
  </energy>
  <time name="totalsc">  400.28   52.64</time>
  <eigenvalues>
   <array>
    <dimension dim="1">band</dimension>
    <dimension dim="2">kpoint</dimension>
    <dimension dim="3">spin</dimension>
    <field>eigene</field>
    <field>occ</field>
    <set>
     <set comment="spin 1">
      <set comment="kpoint 1">
       <r>  -28.8282    1.0000 </r>
       <r>  -13.7840    1.0000 </r>
       <r>  -11.3824    1.0000 </r>
       <r>  -11.3824    1.0000 </r>
       <r>   -8.7331    1.0000 </r>
       <r>   -1.7833    0.0000 </r>
       <r>   -1.7833    0.0000 </r>
       <r>   -0.2246    0.0000 </r>
       <r>    1.7518    0.0000 </r>
      </set>
     </set>
    </set>
   </array>
  </eigenvalues>
  <separator name="orbital magnetization" >
   <v name="MAGDIPOLOUT">      0.00000000      0.00000000      0.00000000</v>
  </separator>
  <dos>
   <i name="efermi">     -7.77396240 </i>
   <total>
    <array>
     <dimension dim="1">gridpoints</dimension>
     <dimension dim="2">spin</dimension>
     <field>energy</field>
     <field>total</field>
     <field>integrated</field>
     <set>
      <set comment="spin 1">
       <r>   -30.8282     0.0000     0.0000 </r>
       <r>   -30.7130     0.0000     0.0000 </r>
       <r>   -30.5977     0.0000     0.0000 </r>
       <r>   -30.4824     0.0000     0.0000 </r>
       <r>   -30.3672     0.0000     0.0000 </r>
       <r>   -30.2519     0.0000     0.0000 </r>
       <r>   -30.1366     0.0000     0.0000 </r>
       <r>   -30.0214     0.0000     0.0000 </r>
       <r>   -29.9061     0.0000     0.0000 </r>
       <r>   -29.7908     0.0000     0.0000 </r>
       <r>   -29.6756     0.0000     0.0000 </r>
       <r>   -29.5603     0.0000     0.0000 </r>
       <r>   -29.4450     0.0001     0.0000 </r>
       <r>   -29.3298     0.0033     0.0004 </r>
       <r>   -29.2145     0.0513     0.0063 </r>
       <r>   -29.0992     0.4253     0.0553 </r>
       <r>   -28.9840     1.8694     0.2708 </r>
       <r>   -28.8687     4.3722     0.7748 </r>
       <r>   -28.7534     5.4514     1.4032 </r>
       <r>   -28.6382     3.6255     1.8211 </r>
       <r>   -28.5229     1.2849     1.9692 </r>
       <r>   -28.4076     0.2421     1.9971 </r>
       <r>   -28.2924     0.0242     1.9998 </r>
       <r>   -28.1771     0.0013     2.0000 </r>
       <r>   -28.0618     0.0000     2.0000 </r>
       <r>   -27.9466     0.0000     2.0000 </r>
       <r>   -27.8313     0.0000     2.0000 </r>
       <r>   -27.7160     0.0000     2.0000 </r>
       <r>   -27.6008     0.0000     2.0000 </r>
       <r>   -27.4855     0.0000     2.0000 </r>
       <r>   -27.3702     0.0000     2.0000 </r>
       <r>   -27.2550     0.0000     2.0000 </r>
       <r>   -27.1397     0.0000     2.0000 </r>
       <r>   -27.0244     0.0000     2.0000 </r>
       <r>   -26.9092     0.0000     2.0000 </r>
       <r>   -26.7939     0.0000     2.0000 </r>
       <r>   -26.6786     0.0000     2.0000 </r>
       <r>   -26.5634     0.0000     2.0000 </r>
       <r>   -26.4481     0.0000     2.0000 </r>
       <r>   -26.3328     0.0000     2.0000 </r>
       <r>   -26.2176     0.0000     2.0000 </r>
       <r>   -26.1023     0.0000     2.0000 </r>
       <r>   -25.9870     0.0000     2.0000 </r>
       <r>   -25.8718     0.0000     2.0000 </r>
       <r>   -25.7565     0.0000     2.0000 </r>
       <r>   -25.6412     0.0000     2.0000 </r>
       <r>   -25.5260     0.0000     2.0000 </r>
       <r>   -25.4107     0.0000     2.0000 </r>
       <r>   -25.2954     0.0000     2.0000 </r>
       <r>   -25.1802     0.0000     2.0000 </r>
       <r>   -25.0649     0.0000     2.0000 </r>
       <r>   -24.9496     0.0000     2.0000 </r>
       <r>   -24.8344     0.0000     2.0000 </r>
       <r>   -24.7191     0.0000     2.0000 </r>
       <r>   -24.6038     0.0000     2.0000 </r>
       <r>   -24.4886     0.0000     2.0000 </r>
       <r>   -24.3733     0.0000     2.0000 </r>
       <r>   -24.2580     0.0000     2.0000 </r>
       <r>   -24.1428     0.0000     2.0000 </r>
       <r>   -24.0275     0.0000     2.0000 </r>
       <r>   -23.9122     0.0000     2.0000 </r>
       <r>   -23.7970     0.0000     2.0000 </r>
       <r>   -23.6817     0.0000     2.0000 </r>
       <r>   -23.5664     0.0000     2.0000 </r>
       <r>   -23.4512     0.0000     2.0000 </r>
       <r>   -23.3359     0.0000     2.0000 </r>
       <r>   -23.2206     0.0000     2.0000 </r>
       <r>   -23.1054     0.0000     2.0000 </r>
       <r>   -22.9901     0.0000     2.0000 </r>
       <r>   -22.8748     0.0000     2.0000 </r>
       <r>   -22.7596     0.0000     2.0000 </r>
       <r>   -22.6443     0.0000     2.0000 </r>
       <r>   -22.5290     0.0000     2.0000 </r>
       <r>   -22.4138     0.0000     2.0000 </r>
       <r>   -22.2985     0.0000     2.0000 </r>
       <r>   -22.1832     0.0000     2.0000 </r>
       <r>   -22.0680     0.0000     2.0000 </r>
       <r>   -21.9527     0.0000     2.0000 </r>
       <r>   -21.8374     0.0000     2.0000 </r>
       <r>   -21.7222     0.0000     2.0000 </r>
       <r>   -21.6069     0.0000     2.0000 </r>
       <r>   -21.4916     0.0000     2.0000 </r>
       <r>   -21.3764     0.0000     2.0000 </r>
       <r>   -21.2611     0.0000     2.0000 </r>
       <r>   -21.1458     0.0000     2.0000 </r>
       <r>   -21.0306     0.0000     2.0000 </r>
       <r>   -20.9153     0.0000     2.0000 </r>
       <r>   -20.8000     0.0000     2.0000 </r>
       <r>   -20.6848     0.0000     2.0000 </r>
       <r>   -20.5695     0.0000     2.0000 </r>
       <r>   -20.4542     0.0000     2.0000 </r>
       <r>   -20.3390     0.0000     2.0000 </r>
       <r>   -20.2237     0.0000     2.0000 </r>
       <r>   -20.1084     0.0000     2.0000 </r>
       <r>   -19.9932     0.0000     2.0000 </r>
       <r>   -19.8779     0.0000     2.0000 </r>
       <r>   -19.7626     0.0000     2.0000 </r>
       <r>   -19.6474     0.0000     2.0000 </r>
       <r>   -19.5321     0.0000     2.0000 </r>
       <r>   -19.4168     0.0000     2.0000 </r>
       <r>   -19.3016     0.0000     2.0000 </r>
       <r>   -19.1863     0.0000     2.0000 </r>
       <r>   -19.0710     0.0000     2.0000 </r>
       <r>   -18.9558     0.0000     2.0000 </r>
       <r>   -18.8405     0.0000     2.0000 </r>
       <r>   -18.7252     0.0000     2.0000 </r>
       <r>   -18.6100     0.0000     2.0000 </r>
       <r>   -18.4947     0.0000     2.0000 </r>
       <r>   -18.3794     0.0000     2.0000 </r>
       <r>   -18.2642     0.0000     2.0000 </r>
       <r>   -18.1489     0.0000     2.0000 </r>
       <r>   -18.0336     0.0000     2.0000 </r>
       <r>   -17.9183     0.0000     2.0000 </r>
       <r>   -17.8031     0.0000     2.0000 </r>
       <r>   -17.6878     0.0000     2.0000 </r>
       <r>   -17.5725     0.0000     2.0000 </r>
       <r>   -17.4573     0.0000     2.0000 </r>
       <r>   -17.3420     0.0000     2.0000 </r>
       <r>   -17.2267     0.0000     2.0000 </r>
       <r>   -17.1115     0.0000     2.0000 </r>
       <r>   -16.9962     0.0000     2.0000 </r>
       <r>   -16.8809     0.0000     2.0000 </r>
       <r>   -16.7657     0.0000     2.0000 </r>
       <r>   -16.6504     0.0000     2.0000 </r>
       <r>   -16.5351     0.0000     2.0000 </r>
       <r>   -16.4199     0.0000     2.0000 </r>
       <r>   -16.3046     0.0000     2.0000 </r>
       <r>   -16.1893     0.0000     2.0000 </r>
       <r>   -16.0741     0.0000     2.0000 </r>
       <r>   -15.9588     0.0000     2.0000 </r>
       <r>   -15.8435     0.0000     2.0000 </r>
       <r>   -15.7283     0.0000     2.0000 </r>
       <r>   -15.6130     0.0000     2.0000 </r>
       <r>   -15.4977     0.0000     2.0000 </r>
       <r>   -15.3825     0.0000     2.0000 </r>
       <r>   -15.2672     0.0000     2.0000 </r>
       <r>   -15.1519     0.0000     2.0000 </r>
       <r>   -15.0367     0.0000     2.0000 </r>
       <r>   -14.9214     0.0000     2.0000 </r>
       <r>   -14.8061     0.0000     2.0000 </r>
       <r>   -14.6909     0.0000     2.0000 </r>
       <r>   -14.5756     0.0000     2.0000 </r>
       <r>   -14.4603     0.0000     2.0000 </r>
       <r>   -14.3451     0.0006     2.0001 </r>
       <r>   -14.2298     0.0134     2.0016 </r>
       <r>   -14.1145     0.1546     2.0194 </r>
       <r>   -13.9993     0.9420     2.1280 </r>
       <r>   -13.8840     3.0503     2.4796 </r>
       <r>   -13.7687     5.2617     3.0861 </r>
       <r>   -13.6535     4.8408     3.6441 </r>
       <r>   -13.5382     2.3748     3.9178 </r>
       <r>   -13.4229     0.6202     3.9893 </r>
       <r>   -13.3077     0.0860     3.9992 </r>
       <r>   -13.1924     0.0063     4.0000 </r>
       <r>   -13.0771     0.0002     4.0000 </r>
       <r>   -12.9619     0.0000     4.0000 </r>
       <r>   -12.8466     0.0000     4.0000 </r>
       <r>   -12.7313     0.0000     4.0000 </r>
       <r>   -12.6161     0.0000     4.0000 </r>
       <r>   -12.5008     0.0000     4.0000 </r>
       <r>   -12.3855     0.0000     4.0000 </r>
       <r>   -12.2703     0.0000     4.0000 </r>
       <r>   -12.1550     0.0000     4.0000 </r>
       <r>   -12.0397     0.0001     4.0000 </r>
       <r>   -11.9245     0.0021     4.0003 </r>
       <r>   -11.8092     0.0420     4.0051 </r>
       <r>   -11.6939     0.4351     4.0552 </r>
       <r>   -11.5787     2.3884     4.3305 </r>
       <r>   -11.4634     6.9701     5.1340 </r>
       <r>   -11.3481    10.8387     6.3833 </r>
       <r>   -11.2329     8.9899     7.4195 </r>
       <r>   -11.1176     3.9754     7.8778 </r>
       <r>   -11.0023     0.9355     7.9856 </r>
       <r>   -10.8871     0.1168     7.9991 </r>
       <r>   -10.7718     0.0077     8.0000 </r>
       <r>   -10.6565     0.0003     8.0000 </r>
       <r>   -10.5413     0.0000     8.0000 </r>
       <r>   -10.4260     0.0000     8.0000 </r>
       <r>   -10.3107     0.0000     8.0000 </r>
       <r>   -10.1955     0.0000     8.0000 </r>
       <r>   -10.0802     0.0000     8.0000 </r>
       <r>    -9.9649     0.0000     8.0000 </r>
       <r>    -9.8497     0.0000     8.0000 </r>
       <r>    -9.7344     0.0000     8.0000 </r>
       <r>    -9.6191     0.0000     8.0000 </r>
       <r>    -9.5039     0.0000     8.0000 </r>
       <r>    -9.3886     0.0000     8.0000 </r>
       <r>    -9.2733     0.0011     8.0001 </r>
       <r>    -9.1581     0.0219     8.0027 </r>
       <r>    -9.0428     0.2244     8.0285 </r>
       <r>    -8.9275     1.2198     8.1691 </r>
       <r>    -8.8123     3.5255     8.5755 </r>
       <r>    -8.6970     5.4295     9.2013 </r>
       <r>    -8.5817     4.4602     9.7154 </r>
       <r>    -8.4665     1.9534     9.9406 </r>
       <r>    -8.3512     0.4553     9.9931 </r>
       <r>    -8.2359     0.0563     9.9996 </r>
       <r>    -8.1207     0.0037    10.0000 </r>
       <r>    -8.0054     0.0001    10.0000 </r>
       <r>    -7.8901     0.0000    10.0000 </r>
       <r>    -7.7749     0.0000    10.0000 </r>
       <r>    -7.6596     0.0000    10.0000 </r>
       <r>    -7.5443     0.0000    10.0000 </r>
       <r>    -7.4291     0.0000    10.0000 </r>
       <r>    -7.3138     0.0000    10.0000 </r>
       <r>    -7.1985     0.0000    10.0000 </r>
       <r>    -7.0833     0.0000    10.0000 </r>
       <r>    -6.9680     0.0000    10.0000 </r>
       <r>    -6.8527     0.0000    10.0000 </r>
       <r>    -6.7375     0.0000    10.0000 </r>
       <r>    -6.6222     0.0000    10.0000 </r>
       <r>    -6.5069     0.0000    10.0000 </r>
       <r>    -6.3917     0.0000    10.0000 </r>
       <r>    -6.2764     0.0000    10.0000 </r>
       <r>    -6.1611     0.0000    10.0000 </r>
       <r>    -6.0459     0.0000    10.0000 </r>
       <r>    -5.9306     0.0000    10.0000 </r>
       <r>    -5.8153     0.0000    10.0000 </r>
       <r>    -5.7001     0.0000    10.0000 </r>
       <r>    -5.5848     0.0000    10.0000 </r>
       <r>    -5.4695     0.0000    10.0000 </r>
       <r>    -5.3543     0.0000    10.0000 </r>
       <r>    -5.2390     0.0000    10.0000 </r>
       <r>    -5.1237     0.0000    10.0000 </r>
       <r>    -5.0085     0.0000    10.0000 </r>
       <r>    -4.8932     0.0000    10.0000 </r>
       <r>    -4.7779     0.0000    10.0000 </r>
       <r>    -4.6627     0.0000    10.0000 </r>
       <r>    -4.5474     0.0000    10.0000 </r>
       <r>    -4.4321     0.0000    10.0000 </r>
       <r>    -4.3169     0.0000    10.0000 </r>
       <r>    -4.2016     0.0000    10.0000 </r>
       <r>    -4.0863     0.0000    10.0000 </r>
       <r>    -3.9711     0.0000    10.0000 </r>
       <r>    -3.8558     0.0000    10.0000 </r>
       <r>    -3.7405     0.0000    10.0000 </r>
       <r>    -3.6253     0.0000    10.0000 </r>
       <r>    -3.5100     0.0000    10.0000 </r>
       <r>    -3.3947     0.0000    10.0000 </r>
       <r>    -3.2795     0.0000    10.0000 </r>
       <r>    -3.1642     0.0000    10.0000 </r>
       <r>    -3.0489     0.0000    10.0000 </r>
       <r>    -2.9337     0.0000    10.0000 </r>
       <r>    -2.8184     0.0000    10.0000 </r>
       <r>    -2.7031     0.0000    10.0000 </r>
       <r>    -2.5879     0.0000    10.0000 </r>
       <r>    -2.4726     0.0000    10.0000 </r>
       <r>    -2.3573     0.0008    10.0001 </r>
       <r>    -2.2421     0.0196    10.0024 </r>
       <r>    -2.1268     0.2422    10.0303 </r>
       <r>    -2.0115     1.5857    10.2131 </r>
       <r>    -1.8963     5.5141    10.8486 </r>
       <r>    -1.7810    10.2117    12.0257 </r>
       <r>    -1.6657    10.0856    13.1882 </r>
       <r>    -1.5505     5.3122    13.8006 </r>
       <r>    -1.4352     1.4900    13.9723 </r>
       <r>    -1.3199     0.2220    13.9979 </r>
       <r>    -1.2046     0.0175    13.9999 </r>
       <r>    -1.0894     0.0007    14.0000 </r>
       <r>    -0.9741     0.0000    14.0000 </r>
       <r>    -0.8588     0.0001    14.0000 </r>
       <r>    -0.7436     0.0020    14.0002 </r>
       <r>    -0.6283     0.0353    14.0043 </r>
       <r>    -0.5130     0.3216    14.0414 </r>
       <r>    -0.3978     1.5558    14.2207 </r>
       <r>    -0.2825     4.0030    14.6821 </r>
       <r>    -0.1672     5.4895    15.3149 </r>
       <r>    -0.0520     4.0155    15.7777 </r>
       <r>     0.0633     1.5656    15.9582 </r>
       <r>     0.1786     0.3247    15.9956 </r>
       <r>     0.2938     0.0357    15.9998 </r>
       <r>     0.4091     0.0021    16.0000 </r>
       <r>     0.5244     0.0001    16.0000 </r>
       <r>     0.6396     0.0000    16.0000 </r>
       <r>     0.7549     0.0000    16.0000 </r>
       <r>     0.8702     0.0000    16.0000 </r>
       <r>     0.9854     0.0000    16.0000 </r>
       <r>     1.1007     0.0000    16.0000 </r>
       <r>     1.2160     0.0013    16.0002 </r>
       <r>     1.3312     0.0242    16.0029 </r>
       <r>     1.4465     0.2421    16.0308 </r>
       <r>     1.5618     1.2849    16.1789 </r>
       <r>     1.6770     3.6255    16.5968 </r>
       <r>     1.7923     5.4514    17.2252 </r>
       <r>     1.9076     4.3722    17.7292 </r>
       <r>     2.0228     1.8694    17.9447 </r>
       <r>     2.1381     0.4253    17.9937 </r>
       <r>     2.2534     0.0513    17.9996 </r>
       <r>     2.3686     0.0033    18.0000 </r>
       <r>     2.4839     0.0001    18.0000 </r>
       <r>     2.5992     0.0000    18.0000 </r>
       <r>     2.7144     0.0000    18.0000 </r>
       <r>     2.8297     0.0000    18.0000 </r>
       <r>     2.9450     0.0000    18.0000 </r>
       <r>     3.0602     0.0000    18.0000 </r>
       <r>     3.1755     0.0000    18.0000 </r>
       <r>     3.2908     0.0000    18.0000 </r>
       <r>     3.4060     0.0000    18.0000 </r>
       <r>     3.5213     0.0000    18.0000 </r>
       <r>     3.6366     0.0000    18.0000 </r>
       <r>     3.7518     0.0000    18.0000 </r>
      </set>
     </set>
    </array>
   </total>
   <partial>
    <array>
     <dimension dim="1">gridpoints</dimension>
     <dimension dim="2">spin</dimension>
     <dimension dim="3">ion</dimension>
     <field>energy</field>
     <field>    s</field>
     <field>   py</field>
     <field>   pz</field>
     <field>   px</field>
     <field>  dxy</field>
     <field>  dyz</field>
     <field>  dz2</field>
     <field>  dxz</field>
     <field>x2-y2</field>
     <set>
      <set comment="ion 1">
       <set comment="spin 1">
        <r>   -30.8282     0.0000     0.0000     0.0000     0.0000     0.0000     0.0000     0.0000     0.0000     0.0000 </r>
        <r>   -30.7130     0.0000     0.0000     0.0000     0.0000     0.0000     0.0000     0.0000     0.0000     0.0000 </r>
        <r>   -30.5977     0.0000     0.0000     0.0000     0.0000     0.0000     0.0000     0.0000     0.0000     0.0000 </r>
        <r>   -30.4824     0.0000     0.0000     0.0000     0.0000     0.0000     0.0000     0.0000     0.0000     0.0000 </r>
        <r>   -30.3672     0.0000     0.0000     0.0000     0.0000     0.0000     0.0000     0.0000     0.0000     0.0000 </r>
        <r>   -30.2519     0.0000     0.0000     0.0000     0.0000     0.0000     0.0000     0.0000     0.0000     0.0000 </r>
        <r>   -30.1366     0.0000     0.0000     0.0000     0.0000     0.0000     0.0000     0.0000     0.0000     0.0000 </r>
        <r>   -30.0214     0.0000     0.0000     0.0000     0.0000     0.0000     0.0000     0.0000     0.0000     0.0000 </r>
        <r>   -29.9061     0.0000     0.0000     0.0000     0.0000     0.0000     0.0000     0.0000     0.0000     0.0000 </r>
        <r>   -29.7908     0.0000     0.0000     0.0000     0.0000     0.0000     0.0000     0.0000     0.0000     0.0000 </r>
        <r>   -29.6756     0.0000     0.0000     0.0000     0.0000     0.0000     0.0000     0.0000     0.0000     0.0000 </r>
        <r>   -29.5603     0.0000     0.0000     0.0000     0.0000     0.0000     0.0000     0.0000     0.0000     0.0000 </r>
        <r>   -29.4450     0.0000     0.0000     0.0000     0.0000     0.0000     0.0000     0.0000     0.0000     0.0000 </r>
        <r>   -29.3298     0.0003     0.0000     0.0002     0.0000     0.0000     0.0000     0.0000     0.0000     0.0000 </r>
        <r>   -29.2145     0.0041     0.0000     0.0033     0.0000     0.0000     0.0000     0.0000     0.0000     0.0000 </r>
        <r>   -29.0992     0.0338     0.0000     0.0272     0.0000     0.0000     0.0000     0.0000     0.0000     0.0000 </r>
        <r>   -28.9840     0.1485     0.0000     0.1195     0.0000     0.0000     0.0000     0.0000     0.0000     0.0000 </r>
        <r>   -28.8687     0.3472     0.0000     0.2794     0.0000     0.0000     0.0000     0.0000     0.0000     0.0000 </r>
        <r>   -28.7534     0.4329     0.0000     0.3484     0.0000     0.0000     0.0000     0.0000     0.0000     0.0000 </r>
        <r>   -28.6382     0.2879     0.0000     0.2317     0.0000     0.0000     0.0000     0.0000     0.0000     0.0000 </r>
        <r>   -28.5229     0.1020     0.0000     0.0821     0.0000     0.0000     0.0000     0.0000     0.0000     0.0000 </r>
        <r>   -28.4076     0.0192     0.0000     0.0155     0.0000     0.0000     0.0000     0.0000     0.0000     0.0000 </r>
        <r>   -28.2924     0.0019     0.0000     0.0015     0.0000     0.0000     0.0000     0.0000     0.0000     0.0000 </r>
        <r>   -28.1771     0.0001     0.0000     0.0001     0.0000     0.0000     0.0000     0.0000     0.0000     0.0000 </r>
        <r>   -28.0618     0.0000     0.0000     0.0000     0.0000     0.0000     0.0000     0.0000     0.0000     0.0000 </r>
        <r>   -27.9466     0.0000     0.0000     0.0000     0.0000     0.0000     0.0000     0.0000     0.0000     0.0000 </r>
        <r>   -27.8313     0.0000     0.0000     0.0000     0.0000     0.0000     0.0000     0.0000     0.0000     0.0000 </r>
        <r>   -27.7160     0.0000     0.0000     0.0000     0.0000     0.0000     0.0000     0.0000     0.0000     0.0000 </r>
        <r>   -27.6008     0.0000     0.0000     0.0000     0.0000     0.0000     0.0000     0.0000     0.0000     0.0000 </r>
        <r>   -27.4855     0.0000     0.0000     0.0000     0.0000     0.0000     0.0000     0.0000     0.0000     0.0000 </r>
        <r>   -27.3702     0.0000     0.0000     0.0000     0.0000     0.0000     0.0000     0.0000     0.0000     0.0000 </r>
        <r>   -27.2550     0.0000     0.0000     0.0000     0.0000     0.0000     0.0000     0.0000     0.0000     0.0000 </r>
        <r>   -27.1397     0.0000     0.0000     0.0000     0.0000     0.0000     0.0000     0.0000     0.0000     0.0000 </r>
        <r>   -27.0244     0.0000     0.0000     0.0000     0.0000     0.0000     0.0000     0.0000     0.0000     0.0000 </r>
        <r>   -26.9092     0.0000     0.0000     0.0000     0.0000     0.0000     0.0000     0.0000     0.0000     0.0000 </r>
        <r>   -26.7939     0.0000     0.0000     0.0000     0.0000     0.0000     0.0000     0.0000     0.0000     0.0000 </r>
        <r>   -26.6786     0.0000     0.0000     0.0000     0.0000     0.0000     0.0000     0.0000     0.0000     0.0000 </r>
        <r>   -26.5634     0.0000     0.0000     0.0000     0.0000     0.0000     0.0000     0.0000     0.0000     0.0000 </r>
        <r>   -26.4481     0.0000     0.0000     0.0000     0.0000     0.0000     0.0000     0.0000     0.0000     0.0000 </r>
        <r>   -26.3328     0.0000     0.0000     0.0000     0.0000     0.0000     0.0000     0.0000     0.0000     0.0000 </r>
        <r>   -26.2176     0.0000     0.0000     0.0000     0.0000     0.0000     0.0000     0.0000     0.0000     0.0000 </r>
        <r>   -26.1023     0.0000     0.0000     0.0000     0.0000     0.0000     0.0000     0.0000     0.0000     0.0000 </r>
        <r>   -25.9870     0.0000     0.0000     0.0000     0.0000     0.0000     0.0000     0.0000     0.0000     0.0000 </r>
        <r>   -25.8718     0.0000     0.0000     0.0000     0.0000     0.0000     0.0000     0.0000     0.0000     0.0000 </r>
        <r>   -25.7565     0.0000     0.0000     0.0000     0.0000     0.0000     0.0000     0.0000     0.0000     0.0000 </r>
        <r>   -25.6412     0.0000     0.0000     0.0000     0.0000     0.0000     0.0000     0.0000     0.0000     0.0000 </r>
        <r>   -25.5260     0.0000     0.0000     0.0000     0.0000     0.0000     0.0000     0.0000     0.0000     0.0000 </r>
        <r>   -25.4107     0.0000     0.0000     0.0000     0.0000     0.0000     0.0000     0.0000     0.0000     0.0000 </r>
        <r>   -25.2954     0.0000     0.0000     0.0000     0.0000     0.0000     0.0000     0.0000     0.0000     0.0000 </r>
        <r>   -25.1802     0.0000     0.0000     0.0000     0.0000     0.0000     0.0000     0.0000     0.0000     0.0000 </r>
        <r>   -25.0649     0.0000     0.0000     0.0000     0.0000     0.0000     0.0000     0.0000     0.0000     0.0000 </r>
        <r>   -24.9496     0.0000     0.0000     0.0000     0.0000     0.0000     0.0000     0.0000     0.0000     0.0000 </r>
        <r>   -24.8344     0.0000     0.0000     0.0000     0.0000     0.0000     0.0000     0.0000     0.0000     0.0000 </r>
        <r>   -24.7191     0.0000     0.0000     0.0000     0.0000     0.0000     0.0000     0.0000     0.0000     0.0000 </r>
        <r>   -24.6038     0.0000     0.0000     0.0000     0.0000     0.0000     0.0000     0.0000     0.0000     0.0000 </r>
        <r>   -24.4886     0.0000     0.0000     0.0000     0.0000     0.0000     0.0000     0.0000     0.0000     0.0000 </r>
        <r>   -24.3733     0.0000     0.0000     0.0000     0.0000     0.0000     0.0000     0.0000     0.0000     0.0000 </r>
        <r>   -24.2580     0.0000     0.0000     0.0000     0.0000     0.0000     0.0000     0.0000     0.0000     0.0000 </r>
        <r>   -24.1428     0.0000     0.0000     0.0000     0.0000     0.0000     0.0000     0.0000     0.0000     0.0000 </r>
        <r>   -24.0275     0.0000     0.0000     0.0000     0.0000     0.0000     0.0000     0.0000     0.0000     0.0000 </r>
        <r>   -23.9122     0.0000     0.0000     0.0000     0.0000     0.0000     0.0000     0.0000     0.0000     0.0000 </r>
        <r>   -23.7970     0.0000     0.0000     0.0000     0.0000     0.0000     0.0000     0.0000     0.0000     0.0000 </r>
        <r>   -23.6817     0.0000     0.0000     0.0000     0.0000     0.0000     0.0000     0.0000     0.0000     0.0000 </r>
        <r>   -23.5664     0.0000     0.0000     0.0000     0.0000     0.0000     0.0000     0.0000     0.0000     0.0000 </r>
        <r>   -23.4512     0.0000     0.0000     0.0000     0.0000     0.0000     0.0000     0.0000     0.0000     0.0000 </r>
        <r>   -23.3359     0.0000     0.0000     0.0000     0.0000     0.0000     0.0000     0.0000     0.0000     0.0000 </r>
        <r>   -23.2206     0.0000     0.0000     0.0000     0.0000     0.0000     0.0000     0.0000     0.0000     0.0000 </r>
        <r>   -23.1054     0.0000     0.0000     0.0000     0.0000     0.0000     0.0000     0.0000     0.0000     0.0000 </r>
        <r>   -22.9901     0.0000     0.0000     0.0000     0.0000     0.0000     0.0000     0.0000     0.0000     0.0000 </r>
        <r>   -22.8748     0.0000     0.0000     0.0000     0.0000     0.0000     0.0000     0.0000     0.0000     0.0000 </r>
        <r>   -22.7596     0.0000     0.0000     0.0000     0.0000     0.0000     0.0000     0.0000     0.0000     0.0000 </r>
        <r>   -22.6443     0.0000     0.0000     0.0000     0.0000     0.0000     0.0000     0.0000     0.0000     0.0000 </r>
        <r>   -22.5290     0.0000     0.0000     0.0000     0.0000     0.0000     0.0000     0.0000     0.0000     0.0000 </r>
        <r>   -22.4138     0.0000     0.0000     0.0000     0.0000     0.0000     0.0000     0.0000     0.0000     0.0000 </r>
        <r>   -22.2985     0.0000     0.0000     0.0000     0.0000     0.0000     0.0000     0.0000     0.0000     0.0000 </r>
        <r>   -22.1832     0.0000     0.0000     0.0000     0.0000     0.0000     0.0000     0.0000     0.0000     0.0000 </r>
        <r>   -22.0680     0.0000     0.0000     0.0000     0.0000     0.0000     0.0000     0.0000     0.0000     0.0000 </r>
        <r>   -21.9527     0.0000     0.0000     0.0000     0.0000     0.0000     0.0000     0.0000     0.0000     0.0000 </r>
        <r>   -21.8374     0.0000     0.0000     0.0000     0.0000     0.0000     0.0000     0.0000     0.0000     0.0000 </r>
        <r>   -21.7222     0.0000     0.0000     0.0000     0.0000     0.0000     0.0000     0.0000     0.0000     0.0000 </r>
        <r>   -21.6069     0.0000     0.0000     0.0000     0.0000     0.0000     0.0000     0.0000     0.0000     0.0000 </r>
        <r>   -21.4916     0.0000     0.0000     0.0000     0.0000     0.0000     0.0000     0.0000     0.0000     0.0000 </r>
        <r>   -21.3764     0.0000     0.0000     0.0000     0.0000     0.0000     0.0000     0.0000     0.0000     0.0000 </r>
        <r>   -21.2611     0.0000     0.0000     0.0000     0.0000     0.0000     0.0000     0.0000     0.0000     0.0000 </r>
        <r>   -21.1458     0.0000     0.0000     0.0000     0.0000     0.0000     0.0000     0.0000     0.0000     0.0000 </r>
        <r>   -21.0306     0.0000     0.0000     0.0000     0.0000     0.0000     0.0000     0.0000     0.0000     0.0000 </r>
        <r>   -20.9153     0.0000     0.0000     0.0000     0.0000     0.0000     0.0000     0.0000     0.0000     0.0000 </r>
        <r>   -20.8000     0.0000     0.0000     0.0000     0.0000     0.0000     0.0000     0.0000     0.0000     0.0000 </r>
        <r>   -20.6848     0.0000     0.0000     0.0000     0.0000     0.0000     0.0000     0.0000     0.0000     0.0000 </r>
        <r>   -20.5695     0.0000     0.0000     0.0000     0.0000     0.0000     0.0000     0.0000     0.0000     0.0000 </r>
        <r>   -20.4542     0.0000     0.0000     0.0000     0.0000     0.0000     0.0000     0.0000     0.0000     0.0000 </r>
        <r>   -20.3390     0.0000     0.0000     0.0000     0.0000     0.0000     0.0000     0.0000     0.0000     0.0000 </r>
        <r>   -20.2237     0.0000     0.0000     0.0000     0.0000     0.0000     0.0000     0.0000     0.0000     0.0000 </r>
        <r>   -20.1084     0.0000     0.0000     0.0000     0.0000     0.0000     0.0000     0.0000     0.0000     0.0000 </r>
        <r>   -19.9932     0.0000     0.0000     0.0000     0.0000     0.0000     0.0000     0.0000     0.0000     0.0000 </r>
        <r>   -19.8779     0.0000     0.0000     0.0000     0.0000     0.0000     0.0000     0.0000     0.0000     0.0000 </r>
        <r>   -19.7626     0.0000     0.0000     0.0000     0.0000     0.0000     0.0000     0.0000     0.0000     0.0000 </r>
        <r>   -19.6474     0.0000     0.0000     0.0000     0.0000     0.0000     0.0000     0.0000     0.0000     0.0000 </r>
        <r>   -19.5321     0.0000     0.0000     0.0000     0.0000     0.0000     0.0000     0.0000     0.0000     0.0000 </r>
        <r>   -19.4168     0.0000     0.0000     0.0000     0.0000     0.0000     0.0000     0.0000     0.0000     0.0000 </r>
        <r>   -19.3016     0.0000     0.0000     0.0000     0.0000     0.0000     0.0000     0.0000     0.0000     0.0000 </r>
        <r>   -19.1863     0.0000     0.0000     0.0000     0.0000     0.0000     0.0000     0.0000     0.0000     0.0000 </r>
        <r>   -19.0710     0.0000     0.0000     0.0000     0.0000     0.0000     0.0000     0.0000     0.0000     0.0000 </r>
        <r>   -18.9558     0.0000     0.0000     0.0000     0.0000     0.0000     0.0000     0.0000     0.0000     0.0000 </r>
        <r>   -18.8405     0.0000     0.0000     0.0000     0.0000     0.0000     0.0000     0.0000     0.0000     0.0000 </r>
        <r>   -18.7252     0.0000     0.0000     0.0000     0.0000     0.0000     0.0000     0.0000     0.0000     0.0000 </r>
        <r>   -18.6100     0.0000     0.0000     0.0000     0.0000     0.0000     0.0000     0.0000     0.0000     0.0000 </r>
        <r>   -18.4947     0.0000     0.0000     0.0000     0.0000     0.0000     0.0000     0.0000     0.0000     0.0000 </r>
        <r>   -18.3794     0.0000     0.0000     0.0000     0.0000     0.0000     0.0000     0.0000     0.0000     0.0000 </r>
        <r>   -18.2642     0.0000     0.0000     0.0000     0.0000     0.0000     0.0000     0.0000     0.0000     0.0000 </r>
        <r>   -18.1489     0.0000     0.0000     0.0000     0.0000     0.0000     0.0000     0.0000     0.0000     0.0000 </r>
        <r>   -18.0336     0.0000     0.0000     0.0000     0.0000     0.0000     0.0000     0.0000     0.0000     0.0000 </r>
        <r>   -17.9183     0.0000     0.0000     0.0000     0.0000     0.0000     0.0000     0.0000     0.0000     0.0000 </r>
        <r>   -17.8031     0.0000     0.0000     0.0000     0.0000     0.0000     0.0000     0.0000     0.0000     0.0000 </r>
        <r>   -17.6878     0.0000     0.0000     0.0000     0.0000     0.0000     0.0000     0.0000     0.0000     0.0000 </r>
        <r>   -17.5725     0.0000     0.0000     0.0000     0.0000     0.0000     0.0000     0.0000     0.0000     0.0000 </r>
        <r>   -17.4573     0.0000     0.0000     0.0000     0.0000     0.0000     0.0000     0.0000     0.0000     0.0000 </r>
        <r>   -17.3420     0.0000     0.0000     0.0000     0.0000     0.0000     0.0000     0.0000     0.0000     0.0000 </r>
        <r>   -17.2267     0.0000     0.0000     0.0000     0.0000     0.0000     0.0000     0.0000     0.0000     0.0000 </r>
        <r>   -17.1115     0.0000     0.0000     0.0000     0.0000     0.0000     0.0000     0.0000     0.0000     0.0000 </r>
        <r>   -16.9962     0.0000     0.0000     0.0000     0.0000     0.0000     0.0000     0.0000     0.0000     0.0000 </r>
        <r>   -16.8809     0.0000     0.0000     0.0000     0.0000     0.0000     0.0000     0.0000     0.0000     0.0000 </r>
        <r>   -16.7657     0.0000     0.0000     0.0000     0.0000     0.0000     0.0000     0.0000     0.0000     0.0000 </r>
        <r>   -16.6504     0.0000     0.0000     0.0000     0.0000     0.0000     0.0000     0.0000     0.0000     0.0000 </r>
        <r>   -16.5351     0.0000     0.0000     0.0000     0.0000     0.0000     0.0000     0.0000     0.0000     0.0000 </r>
        <r>   -16.4199     0.0000     0.0000     0.0000     0.0000     0.0000     0.0000     0.0000     0.0000     0.0000 </r>
        <r>   -16.3046     0.0000     0.0000     0.0000     0.0000     0.0000     0.0000     0.0000     0.0000     0.0000 </r>
        <r>   -16.1893     0.0000     0.0000     0.0000     0.0000     0.0000     0.0000     0.0000     0.0000     0.0000 </r>
        <r>   -16.0741     0.0000     0.0000     0.0000     0.0000     0.0000     0.0000     0.0000     0.0000     0.0000 </r>
        <r>   -15.9588     0.0000     0.0000     0.0000     0.0000     0.0000     0.0000     0.0000     0.0000     0.0000 </r>
        <r>   -15.8435     0.0000     0.0000     0.0000     0.0000     0.0000     0.0000     0.0000     0.0000     0.0000 </r>
        <r>   -15.7283     0.0000     0.0000     0.0000     0.0000     0.0000     0.0000     0.0000     0.0000     0.0000 </r>
        <r>   -15.6130     0.0000     0.0000     0.0000     0.0000     0.0000     0.0000     0.0000     0.0000     0.0000 </r>
        <r>   -15.4977     0.0000     0.0000     0.0000     0.0000     0.0000     0.0000     0.0000     0.0000     0.0000 </r>
        <r>   -15.3825     0.0000     0.0000     0.0000     0.0000     0.0000     0.0000     0.0000     0.0000     0.0000 </r>
        <r>   -15.2672     0.0000     0.0000     0.0000     0.0000     0.0000     0.0000     0.0000     0.0000     0.0000 </r>
        <r>   -15.1519     0.0000     0.0000     0.0000     0.0000     0.0000     0.0000     0.0000     0.0000     0.0000 </r>
        <r>   -15.0367     0.0000     0.0000     0.0000     0.0000     0.0000     0.0000     0.0000     0.0000     0.0000 </r>
        <r>   -14.9214     0.0000     0.0000     0.0000     0.0000     0.0000     0.0000     0.0000     0.0000     0.0000 </r>
        <r>   -14.8061     0.0000     0.0000     0.0000     0.0000     0.0000     0.0000     0.0000     0.0000     0.0000 </r>
        <r>   -14.6909     0.0000     0.0000     0.0000     0.0000     0.0000     0.0000     0.0000     0.0000     0.0000 </r>
        <r>   -14.5756     0.0000     0.0000     0.0000     0.0000     0.0000     0.0000     0.0000     0.0000     0.0000 </r>
        <r>   -14.4603     0.0000     0.0000     0.0000     0.0000     0.0000     0.0000     0.0000     0.0000     0.0000 </r>
        <r>   -14.3451     0.0001     0.0000     0.0000     0.0000     0.0000     0.0000     0.0000     0.0000     0.0000 </r>
        <r>   -14.2298     0.0015     0.0000     0.0002     0.0000     0.0000     0.0000     0.0000     0.0000     0.0000 </r>
        <r>   -14.1145     0.0168     0.0000     0.0019     0.0000     0.0000     0.0000     0.0000     0.0000     0.0000 </r>
        <r>   -13.9993     0.1025     0.0000     0.0119     0.0000     0.0000     0.0000     0.0000     0.0000     0.0000 </r>
        <r>   -13.8840     0.3319     0.0000     0.0384     0.0000     0.0000     0.0000     0.0000     0.0000     0.0000 </r>
        <r>   -13.7687     0.5725     0.0000     0.0662     0.0000     0.0000     0.0000     0.0000     0.0000     0.0000 </r>
        <r>   -13.6535     0.5267     0.0000     0.0609     0.0000     0.0000     0.0000     0.0000     0.0000     0.0000 </r>
        <r>   -13.5382     0.2584     0.0000     0.0299     0.0000     0.0000     0.0000     0.0000     0.0000     0.0000 </r>
        <r>   -13.4229     0.0675     0.0000     0.0078     0.0000     0.0000     0.0000     0.0000     0.0000     0.0000 </r>
        <r>   -13.3077     0.0094     0.0000     0.0011     0.0000     0.0000     0.0000     0.0000     0.0000     0.0000 </r>
        <r>   -13.1924     0.0007     0.0000     0.0001     0.0000     0.0000     0.0000     0.0000     0.0000     0.0000 </r>
        <r>   -13.0771     0.0000     0.0000     0.0000     0.0000     0.0000     0.0000     0.0000     0.0000     0.0000 </r>
        <r>   -12.9619     0.0000     0.0000     0.0000     0.0000     0.0000     0.0000     0.0000     0.0000     0.0000 </r>
        <r>   -12.8466     0.0000     0.0000     0.0000     0.0000     0.0000     0.0000     0.0000     0.0000     0.0000 </r>
        <r>   -12.7313     0.0000     0.0000     0.0000     0.0000     0.0000     0.0000     0.0000     0.0000     0.0000 </r>
        <r>   -12.6161     0.0000     0.0000     0.0000     0.0000     0.0000     0.0000     0.0000     0.0000     0.0000 </r>
        <r>   -12.5008     0.0000     0.0000     0.0000     0.0000     0.0000     0.0000     0.0000     0.0000     0.0000 </r>
        <r>   -12.3855     0.0000     0.0000     0.0000     0.0000     0.0000     0.0000     0.0000     0.0000     0.0000 </r>
        <r>   -12.2703     0.0000     0.0000     0.0000     0.0000     0.0000     0.0000     0.0000     0.0000     0.0000 </r>
        <r>   -12.1550     0.0000     0.0000     0.0000     0.0000     0.0000     0.0000     0.0000     0.0000     0.0000 </r>
        <r>   -12.0397     0.0000     0.0000     0.0000     0.0000     0.0000     0.0000     0.0000     0.0000     0.0000 </r>
        <r>   -11.9245     0.0000     0.0001     0.0000     0.0001     0.0000     0.0000     0.0000     0.0000     0.0000 </r>
        <r>   -11.8092     0.0000     0.0019     0.0000     0.0019     0.0000     0.0000     0.0000     0.0000     0.0000 </r>
        <r>   -11.6939     0.0000     0.0201     0.0000     0.0201     0.0000     0.0000     0.0000     0.0000     0.0000 </r>
        <r>   -11.5787     0.0000     0.1102     0.0000     0.1102     0.0000     0.0000     0.0000     0.0000     0.0000 </r>
        <r>   -11.4634     0.0000     0.3215     0.0000     0.3215     0.0000     0.0000     0.0000     0.0000     0.0000 </r>
        <r>   -11.3481     0.0000     0.4999     0.0000     0.4999     0.0000     0.0000     0.0000     0.0000     0.0000 </r>
        <r>   -11.2329     0.0000     0.4147     0.0000     0.4147     0.0000     0.0000     0.0000     0.0000     0.0000 </r>
        <r>   -11.1176     0.0000     0.1834     0.0000     0.1834     0.0000     0.0000     0.0000     0.0000     0.0000 </r>
        <r>   -11.0023     0.0000     0.0432     0.0000     0.0432     0.0000     0.0000     0.0000     0.0000     0.0000 </r>
        <r>   -10.8871     0.0000     0.0054     0.0000     0.0054     0.0000     0.0000     0.0000     0.0000     0.0000 </r>
        <r>   -10.7718     0.0000     0.0004     0.0000     0.0004     0.0000     0.0000     0.0000     0.0000     0.0000 </r>
        <r>   -10.6565     0.0000     0.0000     0.0000     0.0000     0.0000     0.0000     0.0000     0.0000     0.0000 </r>
        <r>   -10.5413     0.0000     0.0000     0.0000     0.0000     0.0000     0.0000     0.0000     0.0000     0.0000 </r>
        <r>   -10.4260     0.0000     0.0000     0.0000     0.0000     0.0000     0.0000     0.0000     0.0000     0.0000 </r>
        <r>   -10.3107     0.0000     0.0000     0.0000     0.0000     0.0000     0.0000     0.0000     0.0000     0.0000 </r>
        <r>   -10.1955     0.0000     0.0000     0.0000     0.0000     0.0000     0.0000     0.0000     0.0000     0.0000 </r>
        <r>   -10.0802     0.0000     0.0000     0.0000     0.0000     0.0000     0.0000     0.0000     0.0000     0.0000 </r>
        <r>    -9.9649     0.0000     0.0000     0.0000     0.0000     0.0000     0.0000     0.0000     0.0000     0.0000 </r>
        <r>    -9.8497     0.0000     0.0000     0.0000     0.0000     0.0000     0.0000     0.0000     0.0000     0.0000 </r>
        <r>    -9.7344     0.0000     0.0000     0.0000     0.0000     0.0000     0.0000     0.0000     0.0000     0.0000 </r>
        <r>    -9.6191     0.0000     0.0000     0.0000     0.0000     0.0000     0.0000     0.0000     0.0000     0.0000 </r>
        <r>    -9.5039     0.0000     0.0000     0.0000     0.0000     0.0000     0.0000     0.0000     0.0000     0.0000 </r>
        <r>    -9.3886     0.0000     0.0000     0.0000     0.0000     0.0000     0.0000     0.0000     0.0000     0.0000 </r>
        <r>    -9.2733     0.0001     0.0000     0.0002     0.0000     0.0000     0.0000     0.0000     0.0000     0.0000 </r>
        <r>    -9.1581     0.0022     0.0000     0.0035     0.0000     0.0000     0.0000     0.0000     0.0000     0.0000 </r>
        <r>    -9.0428     0.0230     0.0000     0.0363     0.0000     0.0000     0.0000     0.0000     0.0000     0.0000 </r>
        <r>    -8.9275     0.1252     0.0000     0.1971     0.0000     0.0000     0.0000     0.0000     0.0000     0.0000 </r>
        <r>    -8.8123     0.3619     0.0000     0.5697     0.0000     0.0000     0.0000     0.0000     0.0000     0.0000 </r>
        <r>    -8.6970     0.5573     0.0000     0.8774     0.0000     0.0000     0.0000     0.0000     0.0000     0.0000 </r>
        <r>    -8.5817     0.4578     0.0000     0.7207     0.0000     0.0000     0.0000     0.0000     0.0000     0.0000 </r>
        <r>    -8.4665     0.2005     0.0000     0.3157     0.0000     0.0000     0.0000     0.0000     0.0000     0.0000 </r>
        <r>    -8.3512     0.0467     0.0000     0.0736     0.0000     0.0000     0.0000     0.0000     0.0000     0.0000 </r>
        <r>    -8.2359     0.0058     0.0000     0.0091     0.0000     0.0000     0.0000     0.0000     0.0000     0.0000 </r>
        <r>    -8.1207     0.0004     0.0000     0.0006     0.0000     0.0000     0.0000     0.0000     0.0000     0.0000 </r>
        <r>    -8.0054     0.0000     0.0000     0.0000     0.0000     0.0000     0.0000     0.0000     0.0000     0.0000 </r>
        <r>    -7.8901     0.0000     0.0000     0.0000     0.0000     0.0000     0.0000     0.0000     0.0000     0.0000 </r>
        <r>    -7.7749     0.0000     0.0000     0.0000     0.0000     0.0000     0.0000     0.0000     0.0000     0.0000 </r>
        <r>    -7.6596     0.0000     0.0000     0.0000     0.0000     0.0000     0.0000     0.0000     0.0000     0.0000 </r>
        <r>    -7.5443     0.0000     0.0000     0.0000     0.0000     0.0000     0.0000     0.0000     0.0000     0.0000 </r>
        <r>    -7.4291     0.0000     0.0000     0.0000     0.0000     0.0000     0.0000     0.0000     0.0000     0.0000 </r>
        <r>    -7.3138     0.0000     0.0000     0.0000     0.0000     0.0000     0.0000     0.0000     0.0000     0.0000 </r>
        <r>    -7.1985     0.0000     0.0000     0.0000     0.0000     0.0000     0.0000     0.0000     0.0000     0.0000 </r>
        <r>    -7.0833     0.0000     0.0000     0.0000     0.0000     0.0000     0.0000     0.0000     0.0000     0.0000 </r>
        <r>    -6.9680     0.0000     0.0000     0.0000     0.0000     0.0000     0.0000     0.0000     0.0000     0.0000 </r>
        <r>    -6.8527     0.0000     0.0000     0.0000     0.0000     0.0000     0.0000     0.0000     0.0000     0.0000 </r>
        <r>    -6.7375     0.0000     0.0000     0.0000     0.0000     0.0000     0.0000     0.0000     0.0000     0.0000 </r>
        <r>    -6.6222     0.0000     0.0000     0.0000     0.0000     0.0000     0.0000     0.0000     0.0000     0.0000 </r>
        <r>    -6.5069     0.0000     0.0000     0.0000     0.0000     0.0000     0.0000     0.0000     0.0000     0.0000 </r>
        <r>    -6.3917     0.0000     0.0000     0.0000     0.0000     0.0000     0.0000     0.0000     0.0000     0.0000 </r>
        <r>    -6.2764     0.0000     0.0000     0.0000     0.0000     0.0000     0.0000     0.0000     0.0000     0.0000 </r>
        <r>    -6.1611     0.0000     0.0000     0.0000     0.0000     0.0000     0.0000     0.0000     0.0000     0.0000 </r>
        <r>    -6.0459     0.0000     0.0000     0.0000     0.0000     0.0000     0.0000     0.0000     0.0000     0.0000 </r>
        <r>    -5.9306     0.0000     0.0000     0.0000     0.0000     0.0000     0.0000     0.0000     0.0000     0.0000 </r>
        <r>    -5.8153     0.0000     0.0000     0.0000     0.0000     0.0000     0.0000     0.0000     0.0000     0.0000 </r>
        <r>    -5.7001     0.0000     0.0000     0.0000     0.0000     0.0000     0.0000     0.0000     0.0000     0.0000 </r>
        <r>    -5.5848     0.0000     0.0000     0.0000     0.0000     0.0000     0.0000     0.0000     0.0000     0.0000 </r>
        <r>    -5.4695     0.0000     0.0000     0.0000     0.0000     0.0000     0.0000     0.0000     0.0000     0.0000 </r>
        <r>    -5.3543     0.0000     0.0000     0.0000     0.0000     0.0000     0.0000     0.0000     0.0000     0.0000 </r>
        <r>    -5.2390     0.0000     0.0000     0.0000     0.0000     0.0000     0.0000     0.0000     0.0000     0.0000 </r>
        <r>    -5.1237     0.0000     0.0000     0.0000     0.0000     0.0000     0.0000     0.0000     0.0000     0.0000 </r>
        <r>    -5.0085     0.0000     0.0000     0.0000     0.0000     0.0000     0.0000     0.0000     0.0000     0.0000 </r>
        <r>    -4.8932     0.0000     0.0000     0.0000     0.0000     0.0000     0.0000     0.0000     0.0000     0.0000 </r>
        <r>    -4.7779     0.0000     0.0000     0.0000     0.0000     0.0000     0.0000     0.0000     0.0000     0.0000 </r>
        <r>    -4.6627     0.0000     0.0000     0.0000     0.0000     0.0000     0.0000     0.0000     0.0000     0.0000 </r>
        <r>    -4.5474     0.0000     0.0000     0.0000     0.0000     0.0000     0.0000     0.0000     0.0000     0.0000 </r>
        <r>    -4.4321     0.0000     0.0000     0.0000     0.0000     0.0000     0.0000     0.0000     0.0000     0.0000 </r>
        <r>    -4.3169     0.0000     0.0000     0.0000     0.0000     0.0000     0.0000     0.0000     0.0000     0.0000 </r>
        <r>    -4.2016     0.0000     0.0000     0.0000     0.0000     0.0000     0.0000     0.0000     0.0000     0.0000 </r>
        <r>    -4.0863     0.0000     0.0000     0.0000     0.0000     0.0000     0.0000     0.0000     0.0000     0.0000 </r>
        <r>    -3.9711     0.0000     0.0000     0.0000     0.0000     0.0000     0.0000     0.0000     0.0000     0.0000 </r>
        <r>    -3.8558     0.0000     0.0000     0.0000     0.0000     0.0000     0.0000     0.0000     0.0000     0.0000 </r>
        <r>    -3.7405     0.0000     0.0000     0.0000     0.0000     0.0000     0.0000     0.0000     0.0000     0.0000 </r>
        <r>    -3.6253     0.0000     0.0000     0.0000     0.0000     0.0000     0.0000     0.0000     0.0000     0.0000 </r>
        <r>    -3.5100     0.0000     0.0000     0.0000     0.0000     0.0000     0.0000     0.0000     0.0000     0.0000 </r>
        <r>    -3.3947     0.0000     0.0000     0.0000     0.0000     0.0000     0.0000     0.0000     0.0000     0.0000 </r>
        <r>    -3.2795     0.0000     0.0000     0.0000     0.0000     0.0000     0.0000     0.0000     0.0000     0.0000 </r>
        <r>    -3.1642     0.0000     0.0000     0.0000     0.0000     0.0000     0.0000     0.0000     0.0000     0.0000 </r>
        <r>    -3.0489     0.0000     0.0000     0.0000     0.0000     0.0000     0.0000     0.0000     0.0000     0.0000 </r>
        <r>    -2.9337     0.0000     0.0000     0.0000     0.0000     0.0000     0.0000     0.0000     0.0000     0.0000 </r>
        <r>    -2.8184     0.0000     0.0000     0.0000     0.0000     0.0000     0.0000     0.0000     0.0000     0.0000 </r>
        <r>    -2.7031     0.0000     0.0000     0.0000     0.0000     0.0000     0.0000     0.0000     0.0000     0.0000 </r>
        <r>    -2.5879     0.0000     0.0000     0.0000     0.0000     0.0000     0.0000     0.0000     0.0000     0.0000 </r>
        <r>    -2.4726     0.0000     0.0000     0.0000     0.0000     0.0000     0.0000     0.0000     0.0000     0.0000 </r>
        <r>    -2.3573     0.0000     0.0001     0.0000     0.0001     0.0000     0.0000     0.0000     0.0000     0.0000 </r>
        <r>    -2.2421     0.0000     0.0020     0.0000     0.0020     0.0000     0.0000     0.0000     0.0000     0.0000 </r>
        <r>    -2.1268     0.0000     0.0251     0.0000     0.0251     0.0000     0.0000     0.0000     0.0000     0.0000 </r>
        <r>    -2.0115     0.0000     0.1640     0.0000     0.1640     0.0000     0.0000     0.0000     0.0000     0.0000 </r>
        <r>    -1.8963     0.0000     0.5705     0.0000     0.5705     0.0000     0.0000     0.0000     0.0000     0.0000 </r>
        <r>    -1.7810     0.0000     1.0564     0.0000     1.0564     0.0000     0.0000     0.0000     0.0000     0.0000 </r>
        <r>    -1.6657     0.0000     1.0434     0.0000     1.0434     0.0000     0.0000     0.0000     0.0000     0.0000 </r>
        <r>    -1.5505     0.0000     0.5496     0.0000     0.5496     0.0000     0.0000     0.0000     0.0000     0.0000 </r>
        <r>    -1.4352     0.0000     0.1541     0.0000     0.1541     0.0000     0.0000     0.0000     0.0000     0.0000 </r>
        <r>    -1.3199     0.0000     0.0230     0.0000     0.0230     0.0000     0.0000     0.0000     0.0000     0.0000 </r>
        <r>    -1.2046     0.0000     0.0018     0.0000     0.0018     0.0000     0.0000     0.0000     0.0000     0.0000 </r>
        <r>    -1.0894     0.0000     0.0001     0.0000     0.0001     0.0000     0.0000     0.0000     0.0000     0.0000 </r>
        <r>    -0.9741     0.0000     0.0000     0.0000     0.0000     0.0000     0.0000     0.0000     0.0000     0.0000 </r>
        <r>    -0.8588     0.0000     0.0000     0.0000     0.0000     0.0000     0.0000     0.0000     0.0000     0.0000 </r>
        <r>    -0.7436     0.0000     0.0000     0.0000     0.0000     0.0000     0.0000     0.0000     0.0000     0.0000 </r>
        <r>    -0.6283     0.0002     0.0000     0.0002     0.0000     0.0000     0.0000     0.0000     0.0000     0.0000 </r>
        <r>    -0.5130     0.0017     0.0000     0.0017     0.0000     0.0000     0.0000     0.0000     0.0000     0.0000 </r>
        <r>    -0.3978     0.0083     0.0000     0.0081     0.0000     0.0000     0.0000     0.0000     0.0000     0.0000 </r>
        <r>    -0.2825     0.0214     0.0000     0.0209     0.0000     0.0000     0.0000     0.0000     0.0000     0.0000 </r>
        <r>    -0.1672     0.0293     0.0000     0.0286     0.0000     0.0000     0.0000     0.0000     0.0000     0.0000 </r>
        <r>    -0.0520     0.0214     0.0000     0.0209     0.0000     0.0000     0.0000     0.0000     0.0000     0.0000 </r>
        <r>     0.0633     0.0084     0.0000     0.0082     0.0000     0.0000     0.0000     0.0000     0.0000     0.0000 </r>
        <r>     0.1786     0.0017     0.0000     0.0017     0.0000     0.0000     0.0000     0.0000     0.0000     0.0000 </r>
        <r>     0.2938     0.0002     0.0000     0.0002     0.0000     0.0000     0.0000     0.0000     0.0000     0.0000 </r>
        <r>     0.4091     0.0000     0.0000     0.0000     0.0000     0.0000     0.0000     0.0000     0.0000     0.0000 </r>
        <r>     0.5244     0.0000     0.0000     0.0000     0.0000     0.0000     0.0000     0.0000     0.0000     0.0000 </r>
        <r>     0.6396     0.0000     0.0000     0.0000     0.0000     0.0000     0.0000     0.0000     0.0000     0.0000 </r>
        <r>     0.7549     0.0000     0.0000     0.0000     0.0000     0.0000     0.0000     0.0000     0.0000     0.0000 </r>
        <r>     0.8702     0.0000     0.0000     0.0000     0.0000     0.0000     0.0000     0.0000     0.0000     0.0000 </r>
        <r>     0.9854     0.0000     0.0000     0.0000     0.0000     0.0000     0.0000     0.0000     0.0000     0.0000 </r>
        <r>     1.1007     0.0000     0.0000     0.0000     0.0000     0.0000     0.0000     0.0000     0.0000     0.0000 </r>
        <r>     1.2160     0.0000     0.0000     0.0000     0.0000     0.0000     0.0000     0.0000     0.0000     0.0000 </r>
        <r>     1.3312     0.0000     0.0000     0.0000     0.0000     0.0000     0.0000     0.0000     0.0000     0.0000 </r>
        <r>     1.4465     0.0002     0.0000     0.0000     0.0000     0.0000     0.0000     0.0000     0.0000     0.0000 </r>
        <r>     1.5618     0.0011     0.0000     0.0001     0.0000     0.0000     0.0000     0.0000     0.0000     0.0000 </r>
        <r>     1.6770     0.0031     0.0000     0.0002     0.0000     0.0000     0.0000     0.0000     0.0000     0.0000 </r>
        <r>     1.7923     0.0047     0.0000     0.0003     0.0000     0.0000     0.0000     0.0000     0.0000     0.0000 </r>
        <r>     1.9076     0.0038     0.0000     0.0002     0.0000     0.0000     0.0000     0.0000     0.0000     0.0000 </r>
        <r>     2.0228     0.0016     0.0000     0.0001     0.0000     0.0000     0.0000     0.0000     0.0000     0.0000 </r>
        <r>     2.1381     0.0004     0.0000     0.0000     0.0000     0.0000     0.0000     0.0000     0.0000     0.0000 </r>
        <r>     2.2534     0.0000     0.0000     0.0000     0.0000     0.0000     0.0000     0.0000     0.0000     0.0000 </r>
        <r>     2.3686     0.0000     0.0000     0.0000     0.0000     0.0000     0.0000     0.0000     0.0000     0.0000 </r>
        <r>     2.4839     0.0000     0.0000     0.0000     0.0000     0.0000     0.0000     0.0000     0.0000     0.0000 </r>
        <r>     2.5992     0.0000     0.0000     0.0000     0.0000     0.0000     0.0000     0.0000     0.0000     0.0000 </r>
        <r>     2.7144     0.0000     0.0000     0.0000     0.0000     0.0000     0.0000     0.0000     0.0000     0.0000 </r>
        <r>     2.8297     0.0000     0.0000     0.0000     0.0000     0.0000     0.0000     0.0000     0.0000     0.0000 </r>
        <r>     2.9450     0.0000     0.0000     0.0000     0.0000     0.0000     0.0000     0.0000     0.0000     0.0000 </r>
        <r>     3.0602     0.0000     0.0000     0.0000     0.0000     0.0000     0.0000     0.0000     0.0000     0.0000 </r>
        <r>     3.1755     0.0000     0.0000     0.0000     0.0000     0.0000     0.0000     0.0000     0.0000     0.0000 </r>
        <r>     3.2908     0.0000     0.0000     0.0000     0.0000     0.0000     0.0000     0.0000     0.0000     0.0000 </r>
        <r>     3.4060     0.0000     0.0000     0.0000     0.0000     0.0000     0.0000     0.0000     0.0000     0.0000 </r>
        <r>     3.5213     0.0000     0.0000     0.0000     0.0000     0.0000     0.0000     0.0000     0.0000     0.0000 </r>
        <r>     3.6366     0.0000     0.0000     0.0000     0.0000     0.0000     0.0000     0.0000     0.0000     0.0000 </r>
        <r>     3.7518     0.0000     0.0000     0.0000     0.0000     0.0000     0.0000     0.0000     0.0000     0.0000 </r>
       </set>
      </set>
      <set comment="ion 2">
       <set comment="spin 1">
        <r>   -30.8282     0.0000     0.0000     0.0000     0.0000     0.0000     0.0000     0.0000     0.0000     0.0000 </r>
        <r>   -30.7130     0.0000     0.0000     0.0000     0.0000     0.0000     0.0000     0.0000     0.0000     0.0000 </r>
        <r>   -30.5977     0.0000     0.0000     0.0000     0.0000     0.0000     0.0000     0.0000     0.0000     0.0000 </r>
        <r>   -30.4824     0.0000     0.0000     0.0000     0.0000     0.0000     0.0000     0.0000     0.0000     0.0000 </r>
        <r>   -30.3672     0.0000     0.0000     0.0000     0.0000     0.0000     0.0000     0.0000     0.0000     0.0000 </r>
        <r>   -30.2519     0.0000     0.0000     0.0000     0.0000     0.0000     0.0000     0.0000     0.0000     0.0000 </r>
        <r>   -30.1366     0.0000     0.0000     0.0000     0.0000     0.0000     0.0000     0.0000     0.0000     0.0000 </r>
        <r>   -30.0214     0.0000     0.0000     0.0000     0.0000     0.0000     0.0000     0.0000     0.0000     0.0000 </r>
[...]
        <r>   -10.3107     0.0000     0.0000     0.0000     0.0000     0.0000     0.0000     0.0000     0.0000     0.0000 </r>
        <r>   -10.1955     0.0000     0.0000     0.0000     0.0000     0.0000     0.0000     0.0000     0.0000     0.0000 </r>
        <r>   -10.0802     0.0000     0.0000     0.0000     0.0000     0.0000     0.0000     0.0000     0.0000     0.0000 </r>
        <r>    -9.9649     0.0000     0.0000     0.0000     0.0000     0.0000     0.0000     0.0000     0.0000     0.0000 </r>
        <r>    -9.8497     0.0000     0.0000     0.0000     0.0000     0.0000     0.0000     0.0000     0.0000     0.0000 </r>
        <r>    -9.7344     0.0000     0.0000     0.0000     0.0000     0.0000     0.0000     0.0000     0.0000     0.0000 </r>
        <r>    -9.6191     0.0000     0.0000     0.0000     0.0000     0.0000     0.0000     0.0000     0.0000     0.0000 </r>
        <r>    -9.5039     0.0000     0.0000     0.0000     0.0000     0.0000     0.0000     0.0000     0.0000     0.0000 </r>
        <r>    -9.3886     0.0000     0.0000     0.0000     0.0000     0.0000     0.0000     0.0000     0.0000     0.0000 </r>
        <r>    -9.2733     0.0000     0.0000     0.0001     0.0000     0.0000     0.0000     0.0000     0.0000     0.0000 </r>
        <r>    -9.1581     0.0000     0.0000     0.0021     0.0000     0.0000     0.0000     0.0000     0.0000     0.0000 </r>
        <r>    -9.0428     0.0002     0.0000     0.0219     0.0000     0.0000     0.0000     0.0000     0.0000     0.0000 </r>
        <r>    -8.9275     0.0013     0.0000     0.1192     0.0000     0.0000     0.0000     0.0000     0.0000     0.0000 </r>
        <r>    -8.8123     0.0038     0.0000     0.3444     0.0000     0.0000     0.0000     0.0000     0.0000     0.0000 </r>
        <r>    -8.6970     0.0059     0.0000     0.5304     0.0000     0.0000     0.0000     0.0000     0.0000     0.0000 </r>
        <r>    -8.5817     0.0049     0.0000     0.4357     0.0000     0.0000     0.0000     0.0000     0.0000     0.0000 </r>
        <r>    -8.4665     0.0021     0.0000     0.1908     0.0000     0.0000     0.0000     0.0000     0.0000     0.0000 </r>
        <r>    -8.3512     0.0005     0.0000     0.0445     0.0000     0.0000     0.0000     0.0000     0.0000     0.0000 </r>
        <r>    -8.2359     0.0001     0.0000     0.0055     0.0000     0.0000     0.0000     0.0000     0.0000     0.0000 </r>
        <r>    -8.1207     0.0000     0.0000     0.0004     0.0000     0.0000     0.0000     0.0000     0.0000     0.0000 </r>
        <r>    -8.0054     0.0000     0.0000     0.0000     0.0000     0.0000     0.0000     0.0000     0.0000     0.0000 </r>
        <r>    -7.8901     0.0000     0.0000     0.0000     0.0000     0.0000     0.0000     0.0000     0.0000     0.0000 </r>
        <r>    -7.7749     0.0000     0.0000     0.0000     0.0000     0.0000     0.0000     0.0000     0.0000     0.0000 </r>
        <r>    -7.6596     0.0000     0.0000     0.0000     0.0000     0.0000     0.0000     0.0000     0.0000     0.0000 </r>
        <r>    -7.5443     0.0000     0.0000     0.0000     0.0000     0.0000     0.0000     0.0000     0.0000     0.0000 </r>
        <r>    -7.4291     0.0000     0.0000     0.0000     0.0000     0.0000     0.0000     0.0000     0.0000     0.0000 </r>
        <r>    -7.3138     0.0000     0.0000     0.0000     0.0000     0.0000     0.0000     0.0000     0.0000     0.0000 </r>
        <r>    -7.1985     0.0000     0.0000     0.0000     0.0000     0.0000     0.0000     0.0000     0.0000     0.0000 </r>
        <r>    -7.0833     0.0000     0.0000     0.0000     0.0000     0.0000     0.0000     0.0000     0.0000     0.0000 </r>
        <r>    -6.9680     0.0000     0.0000     0.0000     0.0000     0.0000     0.0000     0.0000     0.0000     0.0000 </r>
        <r>    -6.8527     0.0000     0.0000     0.0000     0.0000     0.0000     0.0000     0.0000     0.0000     0.0000 </r>
        <r>    -6.7375     0.0000     0.0000     0.0000     0.0000     0.0000     0.0000     0.0000     0.0000     0.0000 </r>
        <r>    -6.6222     0.0000     0.0000     0.0000     0.0000     0.0000     0.0000     0.0000     0.0000     0.0000 </r>
        <r>    -6.5069     0.0000     0.0000     0.0000     0.0000     0.0000     0.0000     0.0000     0.0000     0.0000 </r>
        <r>    -6.3917     0.0000     0.0000     0.0000     0.0000     0.0000     0.0000     0.0000     0.0000     0.0000 </r>
        <r>    -6.2764     0.0000     0.0000     0.0000     0.0000     0.0000     0.0000     0.0000     0.0000     0.0000 </r>
        <r>    -6.1611     0.0000     0.0000     0.0000     0.0000     0.0000     0.0000     0.0000     0.0000     0.0000 </r>
        <r>    -6.0459     0.0000     0.0000     0.0000     0.0000     0.0000     0.0000     0.0000     0.0000     0.0000 </r>
        <r>    -5.9306     0.0000     0.0000     0.0000     0.0000     0.0000     0.0000     0.0000     0.0000     0.0000 </r>
        <r>    -5.8153     0.0000     0.0000     0.0000     0.0000     0.0000     0.0000     0.0000     0.0000     0.0000 </r>
        <r>    -5.7001     0.0000     0.0000     0.0000     0.0000     0.0000     0.0000     0.0000     0.0000     0.0000 </r>
        <r>    -5.5848     0.0000     0.0000     0.0000     0.0000     0.0000     0.0000     0.0000     0.0000     0.0000 </r>
        <r>    -5.4695     0.0000     0.0000     0.0000     0.0000     0.0000     0.0000     0.0000     0.0000     0.0000 </r>
        <r>    -5.3543     0.0000     0.0000     0.0000     0.0000     0.0000     0.0000     0.0000     0.0000     0.0000 </r>
        <r>    -5.2390     0.0000     0.0000     0.0000     0.0000     0.0000     0.0000     0.0000     0.0000     0.0000 </r>
        <r>    -5.1237     0.0000     0.0000     0.0000     0.0000     0.0000     0.0000     0.0000     0.0000     0.0000 </r>
        <r>    -5.0085     0.0000     0.0000     0.0000     0.0000     0.0000     0.0000     0.0000     0.0000     0.0000 </r>
        <r>    -4.8932     0.0000     0.0000     0.0000     0.0000     0.0000     0.0000     0.0000     0.0000     0.0000 </r>
        <r>    -4.7779     0.0000     0.0000     0.0000     0.0000     0.0000     0.0000     0.0000     0.0000     0.0000 </r>
        <r>    -4.6627     0.0000     0.0000     0.0000     0.0000     0.0000     0.0000     0.0000     0.0000     0.0000 </r>
        <r>    -4.5474     0.0000     0.0000     0.0000     0.0000     0.0000     0.0000     0.0000     0.0000     0.0000 </r>
        <r>    -4.4321     0.0000     0.0000     0.0000     0.0000     0.0000     0.0000     0.0000     0.0000     0.0000 </r>
        <r>    -4.3169     0.0000     0.0000     0.0000     0.0000     0.0000     0.0000     0.0000     0.0000     0.0000 </r>
        <r>    -4.2016     0.0000     0.0000     0.0000     0.0000     0.0000     0.0000     0.0000     0.0000     0.0000 </r>
        <r>    -4.0863     0.0000     0.0000     0.0000     0.0000     0.0000     0.0000     0.0000     0.0000     0.0000 </r>
        <r>    -3.9711     0.0000     0.0000     0.0000     0.0000     0.0000     0.0000     0.0000     0.0000     0.0000 </r>
        <r>    -3.8558     0.0000     0.0000     0.0000     0.0000     0.0000     0.0000     0.0000     0.0000     0.0000 </r>
        <r>    -3.7405     0.0000     0.0000     0.0000     0.0000     0.0000     0.0000     0.0000     0.0000     0.0000 </r>
        <r>    -3.6253     0.0000     0.0000     0.0000     0.0000     0.0000     0.0000     0.0000     0.0000     0.0000 </r>
        <r>    -3.5100     0.0000     0.0000     0.0000     0.0000     0.0000     0.0000     0.0000     0.0000     0.0000 </r>
        <r>    -3.3947     0.0000     0.0000     0.0000     0.0000     0.0000     0.0000     0.0000     0.0000     0.0000 </r>
        <r>    -3.2795     0.0000     0.0000     0.0000     0.0000     0.0000     0.0000     0.0000     0.0000     0.0000 </r>
        <r>    -3.1642     0.0000     0.0000     0.0000     0.0000     0.0000     0.0000     0.0000     0.0000     0.0000 </r>
        <r>    -3.0489     0.0000     0.0000     0.0000     0.0000     0.0000     0.0000     0.0000     0.0000     0.0000 </r>
        <r>    -2.9337     0.0000     0.0000     0.0000     0.0000     0.0000     0.0000     0.0000     0.0000     0.0000 </r>
        <r>    -2.8184     0.0000     0.0000     0.0000     0.0000     0.0000     0.0000     0.0000     0.0000     0.0000 </r>
        <r>    -2.7031     0.0000     0.0000     0.0000     0.0000     0.0000     0.0000     0.0000     0.0000     0.0000 </r>
        <r>    -2.5879     0.0000     0.0000     0.0000     0.0000     0.0000     0.0000     0.0000     0.0000     0.0000 </r>
        <r>    -2.4726     0.0000     0.0000     0.0000     0.0000     0.0000     0.0000     0.0000     0.0000     0.0000 </r>
        <r>    -2.3573     0.0000     0.0001     0.0000     0.0001     0.0000     0.0000     0.0000     0.0000     0.0000 </r>
        <r>    -2.2421     0.0000     0.0016     0.0000     0.0016     0.0000     0.0000     0.0000     0.0000     0.0000 </r>
        <r>    -2.1268     0.0000     0.0195     0.0000     0.0195     0.0000     0.0000     0.0000     0.0000     0.0000 </r>
        <r>    -2.0115     0.0000     0.1277     0.0000     0.1277     0.0000     0.0000     0.0000     0.0000     0.0000 </r>
        <r>    -1.8963     0.0000     0.4442     0.0000     0.4442     0.0000     0.0000     0.0000     0.0000     0.0000 </r>
        <r>    -1.7810     0.0000     0.8226     0.0000     0.8226     0.0000     0.0000     0.0000     0.0000     0.0000 </r>
        <r>    -1.6657     0.0000     0.8125     0.0000     0.8125     0.0000     0.0000     0.0000     0.0000     0.0000 </r>
        <r>    -1.5505     0.0000     0.4279     0.0000     0.4279     0.0000     0.0000     0.0000     0.0000     0.0000 </r>
        <r>    -1.4352     0.0000     0.1200     0.0000     0.1200     0.0000     0.0000     0.0000     0.0000     0.0000 </r>
        <r>    -1.3199     0.0000     0.0179     0.0000     0.0179     0.0000     0.0000     0.0000     0.0000     0.0000 </r>
        <r>    -1.2046     0.0000     0.0014     0.0000     0.0014     0.0000     0.0000     0.0000     0.0000     0.0000 </r>
        <r>    -1.0894     0.0000     0.0001     0.0000     0.0001     0.0000     0.0000     0.0000     0.0000     0.0000 </r>
        <r>    -0.9741     0.0000     0.0000     0.0000     0.0000     0.0000     0.0000     0.0000     0.0000     0.0000 </r>
        <r>    -0.8588     0.0000     0.0000     0.0000     0.0000     0.0000     0.0000     0.0000     0.0000     0.0000 </r>
        <r>    -0.7436     0.0000     0.0000     0.0000     0.0000     0.0000     0.0000     0.0000     0.0000     0.0000 </r>
        <r>    -0.6283     0.0001     0.0000     0.0001     0.0000     0.0000     0.0000     0.0000     0.0000     0.0000 </r>
        <r>    -0.5130     0.0010     0.0000     0.0009     0.0000     0.0000     0.0000     0.0000     0.0000     0.0000 </r>
        <r>    -0.3978     0.0050     0.0000     0.0043     0.0000     0.0000     0.0000     0.0000     0.0000     0.0000 </r>
        <r>    -0.2825     0.0130     0.0000     0.0111     0.0000     0.0000     0.0000     0.0000     0.0000     0.0000 </r>
        <r>    -0.1672     0.0178     0.0000     0.0152     0.0000     0.0000     0.0000     0.0000     0.0000     0.0000 </r>
        <r>    -0.0520     0.0130     0.0000     0.0111     0.0000     0.0000     0.0000     0.0000     0.0000     0.0000 </r>
        <r>     0.0633     0.0051     0.0000     0.0043     0.0000     0.0000     0.0000     0.0000     0.0000     0.0000 </r>
        <r>     0.1786     0.0011     0.0000     0.0009     0.0000     0.0000     0.0000     0.0000     0.0000     0.0000 </r>
        <r>     0.2938     0.0001     0.0000     0.0001     0.0000     0.0000     0.0000     0.0000     0.0000     0.0000 </r>
        <r>     0.4091     0.0000     0.0000     0.0000     0.0000     0.0000     0.0000     0.0000     0.0000     0.0000 </r>
        <r>     0.5244     0.0000     0.0000     0.0000     0.0000     0.0000     0.0000     0.0000     0.0000     0.0000 </r>
        <r>     0.6396     0.0000     0.0000     0.0000     0.0000     0.0000     0.0000     0.0000     0.0000     0.0000 </r>
        <r>     0.7549     0.0000     0.0000     0.0000     0.0000     0.0000     0.0000     0.0000     0.0000     0.0000 </r>
        <r>     0.8702     0.0000     0.0000     0.0000     0.0000     0.0000     0.0000     0.0000     0.0000     0.0000 </r>
        <r>     0.9854     0.0000     0.0000     0.0000     0.0000     0.0000     0.0000     0.0000     0.0000     0.0000 </r>
        <r>     1.1007     0.0000     0.0000     0.0000     0.0000     0.0000     0.0000     0.0000     0.0000     0.0000 </r>
        <r>     1.2160     0.0000     0.0000     0.0000     0.0000     0.0000     0.0000     0.0000     0.0000     0.0000 </r>
        <r>     1.3312     0.0002     0.0000     0.0000     0.0000     0.0000     0.0000     0.0000     0.0000     0.0000 </r>
        <r>     1.4465     0.0021     0.0000     0.0000     0.0000     0.0000     0.0000     0.0000     0.0000     0.0000 </r>
        <r>     1.5618     0.0114     0.0000     0.0002     0.0000     0.0000     0.0000     0.0000     0.0000     0.0000 </r>
        <r>     1.6770     0.0321     0.0000     0.0007     0.0000     0.0000     0.0000     0.0000     0.0000     0.0000 </r>
        <r>     1.7923     0.0482     0.0000     0.0010     0.0000     0.0000     0.0000     0.0000     0.0000     0.0000 </r>
        <r>     1.9076     0.0387     0.0000     0.0008     0.0000     0.0000     0.0000     0.0000     0.0000     0.0000 </r>
        <r>     2.0228     0.0165     0.0000     0.0003     0.0000     0.0000     0.0000     0.0000     0.0000     0.0000 </r>
        <r>     2.1381     0.0038     0.0000     0.0001     0.0000     0.0000     0.0000     0.0000     0.0000     0.0000 </r>
        <r>     2.2534     0.0005     0.0000     0.0000     0.0000     0.0000     0.0000     0.0000     0.0000     0.0000 </r>
        <r>     2.3686     0.0000     0.0000     0.0000     0.0000     0.0000     0.0000     0.0000     0.0000     0.0000 </r>
        <r>     2.4839     0.0000     0.0000     0.0000     0.0000     0.0000     0.0000     0.0000     0.0000     0.0000 </r>
        <r>     2.5992     0.0000     0.0000     0.0000     0.0000     0.0000     0.0000     0.0000     0.0000     0.0000 </r>
        <r>     2.7144     0.0000     0.0000     0.0000     0.0000     0.0000     0.0000     0.0000     0.0000     0.0000 </r>
        <r>     2.8297     0.0000     0.0000     0.0000     0.0000     0.0000     0.0000     0.0000     0.0000     0.0000 </r>
        <r>     2.9450     0.0000     0.0000     0.0000     0.0000     0.0000     0.0000     0.0000     0.0000     0.0000 </r>
        <r>     3.0602     0.0000     0.0000     0.0000     0.0000     0.0000     0.0000     0.0000     0.0000     0.0000 </r>
        <r>     3.1755     0.0000     0.0000     0.0000     0.0000     0.0000     0.0000     0.0000     0.0000     0.0000 </r>
        <r>     3.2908     0.0000     0.0000     0.0000     0.0000     0.0000     0.0000     0.0000     0.0000     0.0000 </r>
        <r>     3.4060     0.0000     0.0000     0.0000     0.0000     0.0000     0.0000     0.0000     0.0000     0.0000 </r>
        <r>     3.5213     0.0000     0.0000     0.0000     0.0000     0.0000     0.0000     0.0000     0.0000     0.0000 </r>
        <r>     3.6366     0.0000     0.0000     0.0000     0.0000     0.0000     0.0000     0.0000     0.0000     0.0000 </r>
        <r>     3.7518     0.0000     0.0000     0.0000     0.0000     0.0000     0.0000     0.0000     0.0000     0.0000 </r>
       </set>
      </set>
     </set>
    </array>
   </partial>
  </dos>
  <projected>
   <eigenvalues>
    <array>
     <dimension dim="1">band</dimension>
     <dimension dim="2">kpoint</dimension>
     <dimension dim="3">spin</dimension>
     <field>eigene</field>
     <field>occ</field>
     <set>
      <set comment="spin 1">
       <set comment="kpoint 1">
        <r>  -28.8282    1.0000 </r>
        <r>  -13.7840    1.0000 </r>
        <r>  -11.3824    1.0000 </r>
        <r>  -11.3824    1.0000 </r>
        <r>   -8.7331    1.0000 </r>
        <r>   -1.7833    0.0000 </r>
        <r>   -1.7833    0.0000 </r>
        <r>   -0.2246    0.0000 </r>
        <r>    1.7518    0.0000 </r>
       </set>
      </set>
     </set>
    </array>
   </eigenvalues>
   <array>
    <dimension dim="1">ion</dimension>
    <dimension dim="2">band</dimension>
    <dimension dim="3">kpoint</dimension>
    <dimension dim="4">spin</dimension>
    <field>    s</field>
    <field>   py</field>
    <field>   pz</field>
    <field>   px</field>
    <field>  dxy</field>
    <field>  dyz</field>
    <field>  dz2</field>
    <field>  dxz</field>
    <field>x2-y2</field>
    <set>
     <set comment="spin1">
      <set comment="kpoint 1">
       <set comment="band 1">
        <r>  0.0794  0.0000  0.0639  0.0000  0.0000  0.0000  0.0000  0.0000  0.0000 </r>
        <r>  0.4194  0.0000  0.0546  0.0000  0.0000  0.0000  0.0000  0.0000  0.0000 </r>
       </set>
       <set comment="band 2">
        <r>  0.1088  0.0000  0.0126  0.0000  0.0000  0.0000  0.0000  0.0000  0.0000 </r>
        <r>  0.1228  0.0000  0.2935  0.0000  0.0000  0.0000  0.0000  0.0000  0.0000 </r>
       </set>
       <set comment="band 3">
        <r>  0.0000  0.0000  0.0000  0.0922  0.0000  0.0000  0.0000  0.0000  0.0000 </r>
        <r>  0.0000  0.0000  0.0000  0.3702  0.0000  0.0000  0.0000  0.0000  0.0000 </r>
       </set>
       <set comment="band 4">
        <r>  0.0000  0.0922  0.0000  0.0000  0.0000  0.0000  0.0000  0.0000  0.0000 </r>
        <r>  0.0000  0.3702  0.0000  0.0000  0.0000  0.0000  0.0000  0.0000  0.0000 </r>
       </set>
       <set comment="band 5">
        <r>  0.1026  0.0000  0.1616  0.0000  0.0000  0.0000  0.0000  0.0000  0.0000 </r>
        <r>  0.0011  0.0000  0.0977  0.0000  0.0000  0.0000  0.0000  0.0000  0.0000 </r>
       </set>
       <set comment="band 6">
        <r>  0.0000  0.1899  0.0000  0.0171  0.0000  0.0000  0.0000  0.0000  0.0000 </r>
        <r>  0.0000  0.1478  0.0000  0.0133  0.0000  0.0000  0.0000  0.0000  0.0000 </r>
       </set>
       <set comment="band 7">
        <r>  0.0000  0.0171  0.0000  0.1899  0.0000  0.0000  0.0000  0.0000  0.0000 </r>
        <r>  0.0000  0.0133  0.0000  0.1478  0.0000  0.0000  0.0000  0.0000  0.0000 </r>
       </set>
       <set comment="band 8">
        <r>  0.0053  0.0000  0.0052  0.0000  0.0000  0.0000  0.0000  0.0000  0.0000 </r>
        <r>  0.0032  0.0000  0.0028  0.0000  0.0000  0.0000  0.0000  0.0000  0.0000 </r>
       </set>
       <set comment="band 9">
        <r>  0.0009  0.0000  0.0000  0.0000  0.0000  0.0000  0.0000  0.0000  0.0000 </r>
        <r>  0.0088  0.0000  0.0002  0.0000  0.0000  0.0000  0.0000  0.0000  0.0000 </r>
       </set>
      </set>
     </set>
    </set>
   </array>
  </projected>
 </calculation>
 <structure name="finalpos" >
  <crystal>
   <varray name="basis" >
    <v>       8.00000000       0.00000000       0.00000000 </v>
    <v>       0.00000000       8.00000000       0.00000000 </v>
    <v>       0.00000000       0.00000000       8.00000000 </v>
   </varray>
   <i name="volume">    512.00000000 </i>
   <varray name="rec_basis" >
    <v>       0.12500000       0.00000000       0.00000000 </v>
    <v>       0.00000000       0.12500000       0.00000000 </v>
    <v>       0.00000000       0.00000000       0.12500000 </v>
   </varray>
  </crystal>
  <varray name="positions" >
   <v>       0.00000000       0.00000000       0.00000000 </v>
   <v>       0.00000000       0.00000000       0.14287500 </v>
  </varray>
  <varray name="selective"  type="logical" >
   <v type="logical" >  F  F  T </v>
   <v type="logical" >  F  F  T </v>
  </varray>
  <nose>
   <v>      -3.00000000       0.00000000       0.00010000       0.00010000 </v>
  </nose>
 </structure>
</modeling>
