   3   3   0   0
  0.8535574E+02  0.6350160E-09  0.6350160E-09  0.6350160E-09  0.1500000E-16
   1.0000000000000000E-004
  CAR 
 unknown system                          
      3.93651969    -26.47822005  301     -6.29994116      1.00000000
    -26.478  0.0000E+00  0.0000E+00
    -26.377  0.0000E+00  0.0000E+00
    -26.275  0.0000E+00  0.0000E+00
    -26.174  0.0000E+00  0.0000E+00
    -26.073  0.0000E+00  0.0000E+00
    -25.971  0.0000E+00  0.0000E+00
    -25.870  0.0000E+00  0.0000E+00
    -25.769  0.0000E+00  0.0000E+00
    -25.667  0.6460E-14  0.6550E-15
    -25.566  0.2912E-09  0.2953E-10
    -25.464  0.1814E-05  0.1840E-06
    -25.363  0.1540E-02  0.1564E-03
    -25.262  0.1853E+00  0.1894E-01
    -25.160  0.3378E+01  0.3615E+00
    -25.059  0.1022E+02  0.1398E+01
    -24.957  0.5439E+01  0.1949E+01
    -24.856  0.4913E+00  0.1999E+01
    -24.755  0.6888E-02  0.2000E+01
    -24.653  0.1389E-04  0.2000E+01
    -24.552  0.3850E-08  0.2000E+01
    -24.451  0.1428E-12  0.2000E+01
    -24.349  0.0000E+00  0.2000E+01
    -24.248  0.0000E+00  0.2000E+01
    -24.146  0.0000E+00  0.2000E+01
    -24.045  0.0000E+00  0.2000E+01
    -23.944  0.0000E+00  0.2000E+01
    -23.842  0.0000E+00  0.2000E+01
    -23.741  0.0000E+00  0.2000E+01
    -23.640  0.0000E+00  0.2000E+01
    -23.538  0.0000E+00  0.2000E+01
    -23.437  0.0000E+00  0.2000E+01
    -23.335  0.0000E+00  0.2000E+01
    -23.234  0.0000E+00  0.2000E+01
    -23.133  0.0000E+00  0.2000E+01
    -23.031  0.0000E+00  0.2000E+01
    -22.930  0.0000E+00  0.2000E+01
    -22.828  0.0000E+00  0.2000E+01
    -22.727  0.0000E+00  0.2000E+01
    -22.626  0.0000E+00  0.2000E+01
    -22.524  0.0000E+00  0.2000E+01
    -22.423  0.0000E+00  0.2000E+01
    -22.322  0.0000E+00  0.2000E+01
    -22.220  0.0000E+00  0.2000E+01
    -22.119  0.0000E+00  0.2000E+01
    -22.017  0.0000E+00  0.2000E+01
    -21.916  0.0000E+00  0.2000E+01
    -21.815  0.0000E+00  0.2000E+01
    -21.713  0.0000E+00  0.2000E+01
    -21.612  0.0000E+00  0.2000E+01
    -21.510  0.0000E+00  0.2000E+01
    -21.409  0.0000E+00  0.2000E+01
    -21.308  0.0000E+00  0.2000E+01
    -21.206  0.0000E+00  0.2000E+01
    -21.105  0.0000E+00  0.2000E+01
    -21.004  0.0000E+00  0.2000E+01
    -20.902  0.0000E+00  0.2000E+01
    -20.801  0.0000E+00  0.2000E+01
    -20.699  0.0000E+00  0.2000E+01
    -20.598  0.0000E+00  0.2000E+01
    -20.497  0.0000E+00  0.2000E+01
    -20.395  0.0000E+00  0.2000E+01
    -20.294  0.0000E+00  0.2000E+01
    -20.193  0.0000E+00  0.2000E+01
    -20.091  0.0000E+00  0.2000E+01
    -19.990  0.0000E+00  0.2000E+01
    -19.888  0.0000E+00  0.2000E+01
    -19.787  0.0000E+00  0.2000E+01
    -19.686  0.0000E+00  0.2000E+01
    -19.584  0.0000E+00  0.2000E+01
    -19.483  0.0000E+00  0.2000E+01
    -19.381  0.0000E+00  0.2000E+01
    -19.280  0.0000E+00  0.2000E+01
    -19.179  0.0000E+00  0.2000E+01
    -19.077  0.0000E+00  0.2000E+01
    -18.976  0.0000E+00  0.2000E+01
    -18.875  0.0000E+00  0.2000E+01
    -18.773  0.0000E+00  0.2000E+01
    -18.672  0.0000E+00  0.2000E+01
    -18.570  0.0000E+00  0.2000E+01
    -18.469  0.0000E+00  0.2000E+01
    -18.368  0.0000E+00  0.2000E+01
    -18.266  0.0000E+00  0.2000E+01
    -18.165  0.0000E+00  0.2000E+01
    -18.063  0.0000E+00  0.2000E+01
    -17.962  0.0000E+00  0.2000E+01
    -17.861  0.0000E+00  0.2000E+01
    -17.759  0.0000E+00  0.2000E+01
    -17.658  0.0000E+00  0.2000E+01
    -17.557  0.0000E+00  0.2000E+01
    -17.455  0.0000E+00  0.2000E+01
    -17.354  0.0000E+00  0.2000E+01
    -17.252  0.0000E+00  0.2000E+01
    -17.151  0.0000E+00  0.2000E+01
    -17.050  0.0000E+00  0.2000E+01
    -16.948  0.0000E+00  0.2000E+01
    -16.847  0.0000E+00  0.2000E+01
    -16.746  0.0000E+00  0.2000E+01
    -16.644  0.0000E+00  0.2000E+01
    -16.543  0.0000E+00  0.2000E+01
    -16.441  0.0000E+00  0.2000E+01
    -16.340  0.0000E+00  0.2000E+01
    -16.239  0.0000E+00  0.2000E+01
    -16.137  0.0000E+00  0.2000E+01
    -16.036  0.0000E+00  0.2000E+01
    -15.934  0.0000E+00  0.2000E+01
    -15.833  0.0000E+00  0.2000E+01
    -15.732  0.0000E+00  0.2000E+01
    -15.630  0.0000E+00  0.2000E+01
    -15.529  0.0000E+00  0.2000E+01
    -15.428  0.0000E+00  0.2000E+01
    -15.326  0.0000E+00  0.2000E+01
    -15.225  0.0000E+00  0.2000E+01
    -15.123  0.0000E+00  0.2000E+01
    -15.022  0.0000E+00  0.2000E+01
    -14.921  0.0000E+00  0.2000E+01
    -14.819  0.0000E+00  0.2000E+01
    -14.718  0.0000E+00  0.2000E+01
    -14.616  0.0000E+00  0.2000E+01
    -14.515  0.0000E+00  0.2000E+01
    -14.414  0.0000E+00  0.2000E+01
    -14.312  0.0000E+00  0.2000E+01
    -14.211  0.0000E+00  0.2000E+01
    -14.110  0.0000E+00  0.2000E+01
    -14.008  0.0000E+00  0.2000E+01
    -13.907  0.0000E+00  0.2000E+01
    -13.805  0.0000E+00  0.2000E+01
    -13.704  0.0000E+00  0.2000E+01
    -13.603  0.0000E+00  0.2000E+01
    -13.501  0.0000E+00  0.2000E+01
    -13.400  0.7375E-11  0.2000E+01
    -13.298  0.9455E-07  0.2000E+01
    -13.197  0.1644E-03  0.2000E+01
    -13.096  0.3997E-01  0.2004E+01
    -12.994  0.1438E+01  0.2150E+01
    -12.893  0.8326E+01  0.2994E+01
    -12.792  0.8400E+01  0.3846E+01
    -12.690  0.1477E+01  0.3996E+01
    -12.589  0.4184E-01  0.4000E+01
    -12.487  0.1753E-03  0.4000E+01
    -12.386  0.1027E-06  0.4000E+01
    -12.285  0.8145E-11  0.4000E+01
    -12.183  0.0000E+00  0.4000E+01
    -12.082  0.0000E+00  0.4000E+01
    -11.981  0.0000E+00  0.4000E+01
    -11.879  0.0000E+00  0.4000E+01
    -11.778  0.0000E+00  0.4000E+01
    -11.676  0.0000E+00  0.4000E+01
    -11.575  0.0000E+00  0.4000E+01
    -11.474  0.0000E+00  0.4000E+01
    -11.372  0.0000E+00  0.4000E+01
    -11.271  0.0000E+00  0.4000E+01
    -11.169  0.0000E+00  0.4000E+01
    -11.068  0.0000E+00  0.4000E+01
    -10.967  0.0000E+00  0.4000E+01
    -10.865  0.0000E+00  0.4000E+01
    -10.764  0.0000E+00  0.4000E+01
    -10.663  0.0000E+00  0.4000E+01
    -10.561  0.0000E+00  0.4000E+01
    -10.460  0.0000E+00  0.4000E+01
    -10.358  0.0000E+00  0.4000E+01
    -10.257  0.0000E+00  0.4000E+01
    -10.156  0.0000E+00  0.4000E+01
    -10.054  0.0000E+00  0.4000E+01
     -9.953  0.0000E+00  0.4000E+01
     -9.851  0.0000E+00  0.4000E+01
     -9.750  0.0000E+00  0.4000E+01
     -9.649  0.0000E+00  0.4000E+01
     -9.547  0.0000E+00  0.4000E+01
     -9.446  0.5156E-13  0.4000E+01
     -9.345  0.1633E-08  0.4000E+01
     -9.243  0.6982E-05  0.4000E+01
     -9.142  0.4125E-02  0.4000E+01
     -9.040  0.3513E+00  0.4036E+01
     -8.939  0.4636E+01  0.4506E+01
     -8.838  0.1036E+02  0.5557E+01
     -8.736  0.4095E+01  0.5972E+01
     -8.635  0.2723E+00  0.6000E+01
     -8.534  0.2783E-02  0.6000E+01
     -8.432  0.4072E-05  0.6000E+01
     -8.331  0.8182E-09  0.6000E+01
     -8.229  0.2190E-13  0.6000E+01
     -8.128  0.0000E+00  0.6000E+01
     -8.027  0.0000E+00  0.6000E+01
     -7.925  0.0000E+00  0.6000E+01
     -7.824  0.0000E+00  0.6000E+01
     -7.722  0.0000E+00  0.6000E+01
     -7.621  0.0000E+00  0.6000E+01
     -7.520  0.0000E+00  0.6000E+01
     -7.418  0.7444E-14  0.6000E+01
     -7.317  0.3336E-09  0.6000E+01
     -7.216  0.1978E-05  0.6000E+01
     -7.114  0.1618E-02  0.6000E+01
     -7.013  0.1896E+00  0.6019E+01
     -6.911  0.3402E+01  0.6364E+01
     -6.810  0.1021E+02  0.7400E+01
     -6.709  0.5422E+01  0.7949E+01
     -6.607  0.4917E+00  0.7999E+01
     -6.506  0.6963E-02  0.8000E+01
     -6.404  0.1427E-04  0.8000E+01
     -6.303  0.4044E-08  0.8000E+01
     -6.202  0.1542E-12  0.8000E+01
     -6.100  0.0000E+00  0.8000E+01
     -5.999  0.0000E+00  0.8000E+01
     -5.898  0.0000E+00  0.8000E+01
     -5.796  0.0000E+00  0.8000E+01
     -5.695  0.0000E+00  0.8000E+01
     -5.593  0.0000E+00  0.8000E+01
     -5.492  0.0000E+00  0.8000E+01
     -5.391  0.0000E+00  0.8000E+01
     -5.289  0.0000E+00  0.8000E+01
     -5.188  0.0000E+00  0.8000E+01
     -5.087  0.0000E+00  0.8000E+01
     -4.985  0.0000E+00  0.8000E+01
     -4.884  0.0000E+00  0.8000E+01
     -4.782  0.0000E+00  0.8000E+01
     -4.681  0.0000E+00  0.8000E+01
     -4.580  0.0000E+00  0.8000E+01
     -4.478  0.0000E+00  0.8000E+01
     -4.377  0.0000E+00  0.8000E+01
     -4.275  0.0000E+00  0.8000E+01
     -4.174  0.0000E+00  0.8000E+01
     -4.073  0.0000E+00  0.8000E+01
     -3.971  0.0000E+00  0.8000E+01
     -3.870  0.0000E+00  0.8000E+01
     -3.769  0.0000E+00  0.8000E+01
     -3.667  0.0000E+00  0.8000E+01
     -3.566  0.0000E+00  0.8000E+01
     -3.464  0.0000E+00  0.8000E+01
     -3.363  0.0000E+00  0.8000E+01
     -3.262  0.0000E+00  0.8000E+01
     -3.160  0.0000E+00  0.8000E+01
     -3.059  0.0000E+00  0.8000E+01
     -2.957  0.0000E+00  0.8000E+01
     -2.856  0.0000E+00  0.8000E+01
     -2.755  0.0000E+00  0.8000E+01
     -2.653  0.0000E+00  0.8000E+01
     -2.552  0.0000E+00  0.8000E+01
     -2.451  0.0000E+00  0.8000E+01
     -2.349  0.0000E+00  0.8000E+01
     -2.248  0.0000E+00  0.8000E+01
     -2.146  0.0000E+00  0.8000E+01
     -2.045  0.0000E+00  0.8000E+01
     -1.944  0.0000E+00  0.8000E+01
     -1.842  0.0000E+00  0.8000E+01
     -1.741  0.4930E-11  0.8000E+01
     -1.640  0.6860E-07  0.8000E+01
     -1.538  0.1290E-03  0.8000E+01
     -1.437  0.3381E-01  0.8003E+01
     -1.335  0.1304E+01  0.8136E+01
     -1.234  0.8063E+01  0.8953E+01
     -1.133  0.8653E+01  0.9831E+01
     -1.031  0.1619E+01  0.9995E+01
     -0.930  0.4890E-01  0.1000E+02
     -0.828  0.2186E-03  0.1000E+02
     -0.727  0.1366E-06  0.1000E+02
     -0.626  0.1155E-10  0.1000E+02
     -0.524  0.0000E+00  0.1000E+02
     -0.423  0.0000E+00  0.1000E+02
     -0.322  0.0000E+00  0.1000E+02
     -0.220  0.0000E+00  0.1000E+02
     -0.119  0.0000E+00  0.1000E+02
     -0.017  0.0000E+00  0.1000E+02
      0.084  0.0000E+00  0.1000E+02
      0.185  0.0000E+00  0.1000E+02
      0.287  0.0000E+00  0.1000E+02
      0.388  0.0000E+00  0.1000E+02
      0.490  0.0000E+00  0.1000E+02
      0.591  0.0000E+00  0.1000E+02
      0.692  0.0000E+00  0.1000E+02
      0.794  0.0000E+00  0.1000E+02
      0.895  0.0000E+00  0.1000E+02
      0.996  0.0000E+00  0.1000E+02
      1.098  0.0000E+00  0.1000E+02
      1.199  0.0000E+00  0.1000E+02
      1.301  0.0000E+00  0.1000E+02
      1.402  0.0000E+00  0.1000E+02
      1.503  0.0000E+00  0.1000E+02
      1.605  0.6979E-12  0.1000E+02
      1.706  0.1309E-07  0.1000E+02
      1.807  0.3383E-04  0.1000E+02
      1.909  0.1254E-01  0.1000E+02
      2.010  0.7219E+00  0.1007E+02
      2.112  0.7564E+01  0.1084E+02
      2.213  0.1813E+02  0.1268E+02
      2.314  0.1133E+02  0.1383E+02
      2.416  0.2142E+01  0.1405E+02
      2.517  0.5483E+01  0.1460E+02
      2.619  0.1022E+02  0.1564E+02
      2.720  0.3378E+01  0.1598E+02
      2.821  0.1853E+00  0.1600E+02
      2.923  0.1540E-02  0.1600E+02
      3.024  0.1814E-05  0.1600E+02
      3.125  0.2912E-09  0.1600E+02
      3.227  0.6350E-14  0.1600E+02
      3.328  0.0000E+00  0.1600E+02
      3.430  0.0000E+00  0.1600E+02
      3.531  0.0000E+00  0.1600E+02
      3.632  0.0000E+00  0.1600E+02
      3.734  0.0000E+00  0.1600E+02
      3.835  0.0000E+00  0.1600E+02
      3.937  0.0000E+00  0.1600E+02
      3.94628466    -26.47828044  301     -6.29348303      1.00000000
    -26.478  0.0000E+00  0.0000E+00
    -26.377  0.0000E+00  0.0000E+00
    -26.275  0.0000E+00  0.0000E+00
    -26.174  0.0000E+00  0.0000E+00
    -26.073  0.0000E+00  0.0000E+00
    -25.971  0.0000E+00  0.0000E+00
    -25.870  0.0000E+00  0.0000E+00
    -25.768  0.0000E+00  0.0000E+00
    -25.667  0.6568E-15  0.6661E-16
    -25.566  0.2898E-10  0.2939E-11
    -25.464  0.1809E-06  0.1834E-07
    -25.363  0.1537E-03  0.1561E-04
    -25.261  0.1851E-01  0.1893E-02
    -25.160  0.3377E+00  0.3614E-01
    -25.058  0.1022E+01  0.1398E+00
    -24.957  0.5438E+00  0.1950E+00
    -24.856  0.4910E-01  0.1999E+00
    -24.754  0.6878E-03  0.2000E+00
    -24.653  0.1386E-05  0.2000E+00
    -24.551  0.3834E-09  0.2000E+00
    -24.450  0.1423E-13  0.2000E+00
    -24.349  0.0000E+00  0.2000E+00
    -24.247  0.0000E+00  0.2000E+00
    -24.146  0.0000E+00  0.2000E+00
    -24.044  0.0000E+00  0.2000E+00
    -23.943  0.0000E+00  0.2000E+00
    -23.841  0.0000E+00  0.2000E+00
    -23.740  0.0000E+00  0.2000E+00
    -23.639  0.0000E+00  0.2000E+00
    -23.537  0.0000E+00  0.2000E+00
    -23.436  0.0000E+00  0.2000E+00
    -23.334  0.0000E+00  0.2000E+00
    -23.233  0.0000E+00  0.2000E+00
    -23.132  0.0000E+00  0.2000E+00
    -23.030  0.0000E+00  0.2000E+00
    -22.929  0.0000E+00  0.2000E+00
    -22.827  0.0000E+00  0.2000E+00
    -22.726  0.0000E+00  0.2000E+00
    -22.625  0.0000E+00  0.2000E+00
    -22.523  0.0000E+00  0.2000E+00
    -22.422  0.0000E+00  0.2000E+00
    -22.320  0.0000E+00  0.2000E+00
    -22.219  0.0000E+00  0.2000E+00
    -22.117  0.0000E+00  0.2000E+00
    -22.016  0.0000E+00  0.2000E+00
    -21.915  0.0000E+00  0.2000E+00
    -21.813  0.0000E+00  0.2000E+00
    -21.712  0.0000E+00  0.2000E+00
    -21.610  0.0000E+00  0.2000E+00
    -21.509  0.0000E+00  0.2000E+00
    -21.408  0.0000E+00  0.2000E+00
    -21.306  0.0000E+00  0.2000E+00
    -21.205  0.0000E+00  0.2000E+00
    -21.103  0.0000E+00  0.2000E+00
    -21.002  0.0000E+00  0.2000E+00
    -20.900  0.0000E+00  0.2000E+00
    -20.799  0.0000E+00  0.2000E+00
    -20.698  0.0000E+00  0.2000E+00
    -20.596  0.0000E+00  0.2000E+00
    -20.495  0.0000E+00  0.2000E+00
    -20.393  0.0000E+00  0.2000E+00
    -20.292  0.0000E+00  0.2000E+00
    -20.191  0.0000E+00  0.2000E+00
    -20.089  0.0000E+00  0.2000E+00
    -19.988  0.0000E+00  0.2000E+00
    -19.886  0.0000E+00  0.2000E+00
    -19.785  0.0000E+00  0.2000E+00
    -19.683  0.0000E+00  0.2000E+00
    -19.582  0.0000E+00  0.2000E+00
    -19.481  0.0000E+00  0.2000E+00
    -19.379  0.0000E+00  0.2000E+00
    -19.278  0.0000E+00  0.2000E+00
    -19.176  0.0000E+00  0.2000E+00
    -19.075  0.0000E+00  0.2000E+00
    -18.974  0.0000E+00  0.2000E+00
    -18.872  0.0000E+00  0.2000E+00
    -18.771  0.0000E+00  0.2000E+00
    -18.669  0.0000E+00  0.2000E+00
    -18.568  0.0000E+00  0.2000E+00
    -18.466  0.0000E+00  0.2000E+00
    -18.365  0.0000E+00  0.2000E+00
    -18.264  0.0000E+00  0.2000E+00
    -18.162  0.0000E+00  0.2000E+00
    -18.061  0.0000E+00  0.2000E+00
    -17.959  0.0000E+00  0.2000E+00
    -17.858  0.0000E+00  0.2000E+00
    -17.757  0.0000E+00  0.2000E+00
    -17.655  0.0000E+00  0.2000E+00
    -17.554  0.0000E+00  0.2000E+00
    -17.452  0.0000E+00  0.2000E+00
    -17.351  0.0000E+00  0.2000E+00
    -17.249  0.0000E+00  0.2000E+00
    -17.148  0.0000E+00  0.2000E+00
    -17.047  0.0000E+00  0.2000E+00
    -16.945  0.0000E+00  0.2000E+00
    -16.844  0.0000E+00  0.2000E+00
    -16.742  0.0000E+00  0.2000E+00
    -16.641  0.0000E+00  0.2000E+00
    -16.540  0.0000E+00  0.2000E+00
    -16.438  0.0000E+00  0.2000E+00
    -16.337  0.0000E+00  0.2000E+00
    -16.235  0.0000E+00  0.2000E+00
    -16.134  0.0000E+00  0.2000E+00
    -16.033  0.0000E+00  0.2000E+00
    -15.931  0.0000E+00  0.2000E+00
    -15.830  0.0000E+00  0.2000E+00
    -15.728  0.0000E+00  0.2000E+00
    -15.627  0.0000E+00  0.2000E+00
    -15.525  0.0000E+00  0.2000E+00
    -15.424  0.0000E+00  0.2000E+00
    -15.323  0.0000E+00  0.2000E+00
    -15.221  0.0000E+00  0.2000E+00
    -15.120  0.0000E+00  0.2000E+00
    -15.018  0.0000E+00  0.2000E+00
    -14.917  0.0000E+00  0.2000E+00
    -14.816  0.0000E+00  0.2000E+00
    -14.714  0.0000E+00  0.2000E+00
    -14.613  0.0000E+00  0.2000E+00
    -14.511  0.0000E+00  0.2000E+00
    -14.410  0.0000E+00  0.2000E+00
    -14.308  0.0000E+00  0.2000E+00
    -14.207  0.0000E+00  0.2000E+00
    -14.106  0.0000E+00  0.2000E+00
    -14.004  0.0000E+00  0.2000E+00
    -13.903  0.0000E+00  0.2000E+00
    -13.801  0.0000E+00  0.2000E+00
    -13.700  0.0000E+00  0.2000E+00
    -13.599  0.0000E+00  0.2000E+00
    -13.497  0.0000E+00  0.2000E+00
    -13.396  0.8041E-12  0.2000E+00
    -13.294  0.1024E-07  0.2000E+00
    -13.193  0.1760E-04  0.2000E+00
    -13.091  0.4215E-02  0.2004E+00
    -12.990  0.1487E+00  0.2155E+00
    -12.889  0.8430E+00  0.3010E+00
    -12.787  0.8303E+00  0.3852E+00
    -12.686  0.1420E+00  0.3996E+00
    -12.584  0.3892E-02  0.4000E+00
    -12.483  0.1571E-04  0.4000E+00
    -12.382  0.8825E-08  0.4000E+00
    -12.280  0.6689E-12  0.4000E+00
    -12.179  0.0000E+00  0.4000E+00
    -12.077  0.0000E+00  0.4000E+00
    -11.976  0.0000E+00  0.4000E+00
    -11.874  0.0000E+00  0.4000E+00
    -11.773  0.0000E+00  0.4000E+00
    -11.672  0.0000E+00  0.4000E+00
    -11.570  0.0000E+00  0.4000E+00
    -11.469  0.0000E+00  0.4000E+00
    -11.367  0.0000E+00  0.4000E+00
    -11.266  0.0000E+00  0.4000E+00
    -11.165  0.0000E+00  0.4000E+00
    -11.063  0.0000E+00  0.4000E+00
    -10.962  0.0000E+00  0.4000E+00
    -10.860  0.0000E+00  0.4000E+00
    -10.759  0.0000E+00  0.4000E+00
    -10.658  0.0000E+00  0.4000E+00
    -10.556  0.0000E+00  0.4000E+00
    -10.455  0.0000E+00  0.4000E+00
    -10.353  0.0000E+00  0.4000E+00
    -10.252  0.0000E+00  0.4000E+00
    -10.150  0.0000E+00  0.4000E+00
    -10.049  0.0000E+00  0.4000E+00
     -9.948  0.0000E+00  0.4000E+00
     -9.846  0.0000E+00  0.4000E+00
     -9.745  0.0000E+00  0.4000E+00
     -9.643  0.0000E+00  0.4000E+00
     -9.542  0.0000E+00  0.4000E+00
     -9.441  0.5912E-14  0.4000E+00
     -9.339  0.1880E-09  0.4000E+00
     -9.238  0.7924E-06  0.4000E+00
     -9.136  0.4576E-03  0.4000E+00
     -9.035  0.3783E-01  0.4039E+00
     -8.933  0.4819E+00  0.4528E+00
     -8.832  0.1036E+01  0.5578E+00
     -8.731  0.3914E+00  0.5975E+00
     -8.629  0.2471E-01  0.6000E+00
     -8.528  0.2380E-03  0.6000E+00
     -8.426  0.3259E-06  0.6000E+00
     -8.325  0.6091E-10  0.6000E+00
     -8.224  0.1533E-14  0.6000E+00
     -8.122  0.0000E+00  0.6000E+00
     -8.021  0.0000E+00  0.6000E+00
     -7.919  0.0000E+00  0.6000E+00
     -7.818  0.0000E+00  0.6000E+00
     -7.716  0.0000E+00  0.6000E+00
     -7.615  0.0000E+00  0.6000E+00
     -7.514  0.0000E+00  0.6000E+00
     -7.412  0.8758E-15  0.6000E+00
     -7.311  0.3797E-10  0.6000E+00
     -7.209  0.2241E-06  0.6000E+00
     -7.108  0.1803E-03  0.6000E+00
     -7.007  0.2058E-01  0.6021E+00
     -6.905  0.3567E+00  0.6383E+00
     -6.804  0.1028E+01  0.7425E+00
     -6.702  0.5212E+00  0.7954E+00
     -6.601  0.4474E-01  0.7999E+00
     -6.499  0.5943E-03  0.8000E+00
     -6.398  0.1133E-05  0.8000E+00
     -6.297  0.2967E-09  0.8000E+00
     -6.195  0.1051E-13  0.8000E+00
     -6.094  0.0000E+00  0.8000E+00
     -5.992  0.0000E+00  0.8000E+00
     -5.891  0.0000E+00  0.8000E+00
     -5.790  0.0000E+00  0.8000E+00
     -5.688  0.0000E+00  0.8000E+00
     -5.587  0.0000E+00  0.8000E+00
     -5.485  0.0000E+00  0.8000E+00
     -5.384  0.0000E+00  0.8000E+00
     -5.283  0.0000E+00  0.8000E+00
     -5.181  0.0000E+00  0.8000E+00
     -5.080  0.0000E+00  0.8000E+00
     -4.978  0.0000E+00  0.8000E+00
     -4.877  0.0000E+00  0.8000E+00
     -4.775  0.0000E+00  0.8000E+00
     -4.674  0.0000E+00  0.8000E+00
     -4.573  0.0000E+00  0.8000E+00
     -4.471  0.0000E+00  0.8000E+00
     -4.370  0.0000E+00  0.8000E+00
     -4.268  0.0000E+00  0.8000E+00
     -4.167  0.0000E+00  0.8000E+00
     -4.066  0.0000E+00  0.8000E+00
     -3.964  0.0000E+00  0.8000E+00
     -3.863  0.0000E+00  0.8000E+00
     -3.761  0.0000E+00  0.8000E+00
     -3.660  0.0000E+00  0.8000E+00
     -3.558  0.0000E+00  0.8000E+00
     -3.457  0.0000E+00  0.8000E+00
     -3.356  0.0000E+00  0.8000E+00
     -3.254  0.0000E+00  0.8000E+00
     -3.153  0.0000E+00  0.8000E+00
     -3.051  0.0000E+00  0.8000E+00
     -2.950  0.0000E+00  0.8000E+00
     -2.849  0.0000E+00  0.8000E+00
     -2.747  0.0000E+00  0.8000E+00
     -2.646  0.0000E+00  0.8000E+00
     -2.544  0.0000E+00  0.8000E+00
     -2.443  0.0000E+00  0.8000E+00
     -2.341  0.0000E+00  0.8000E+00
     -2.240  0.0000E+00  0.8000E+00
     -2.139  0.0000E+00  0.8000E+00
     -2.037  0.0000E+00  0.8000E+00
     -1.936  0.0000E+00  0.8000E+00
     -1.834  0.0000E+00  0.8000E+00
     -1.733  0.3716E-12  0.8000E+00
     -1.632  0.5484E-08  0.8000E+00
     -1.530  0.1091E-04  0.8000E+00
     -1.429  0.3013E-02  0.8003E+00
     -1.327  0.1220E+00  0.8127E+00
     -1.226  0.7883E+00  0.8926E+00
     -1.124  0.8815E+00  0.9820E+00
     -1.023  0.1718E+00  0.9994E+00
     -0.922  0.5402E-02  0.1000E+01
     -0.820  0.2515E-04  0.1000E+01
     -0.719  0.1634E-07  0.1000E+01
     -0.617  0.1436E-11  0.1000E+01
     -0.516  0.0000E+00  0.1000E+01
     -0.415  0.0000E+00  0.1000E+01
     -0.313  0.0000E+00  0.1000E+01
     -0.212  0.0000E+00  0.1000E+01
     -0.110  0.0000E+00  0.1000E+01
     -0.009  0.0000E+00  0.1000E+01
      0.093  0.0000E+00  0.1000E+01
      0.194  0.0000E+00  0.1000E+01
      0.295  0.0000E+00  0.1000E+01
      0.397  0.0000E+00  0.1000E+01
      0.498  0.0000E+00  0.1000E+01
      0.600  0.0000E+00  0.1000E+01
      0.701  0.0000E+00  0.1000E+01
      0.802  0.0000E+00  0.1000E+01
      0.904  0.0000E+00  0.1000E+01
      1.005  0.0000E+00  0.1000E+01
      1.107  0.0000E+00  0.1000E+01
      1.208  0.0000E+00  0.1000E+01
      1.309  0.0000E+00  0.1000E+01
      1.411  0.0000E+00  0.1000E+01
      1.512  0.0000E+00  0.1000E+01
      1.614  0.6021E-14  0.1000E+01
      1.715  0.1905E-09  0.1000E+01
      1.817  0.8077E-06  0.1000E+01
      1.918  0.4764E-03  0.1000E+01
      2.019  0.4195E-01  0.1004E+01
      2.121  0.6267E+00  0.1068E+01
      2.222  0.1869E+01  0.1257E+01
      2.324  0.1231E+01  0.1382E+01
      2.425  0.2204E+00  0.1405E+01
      2.526  0.5482E+00  0.1460E+01
      2.628  0.1022E+01  0.1564E+01
      2.729  0.3377E+00  0.1598E+01
      2.831  0.1851E-01  0.1600E+01
      2.932  0.1537E-03  0.1600E+01
      3.034  0.1809E-06  0.1600E+01
      3.135  0.2898E-10  0.1600E+01
      3.236  0.6568E-15  0.1600E+01
      3.338  0.0000E+00  0.1600E+01
      3.439  0.0000E+00  0.1600E+01
      3.541  0.0000E+00  0.1600E+01
      3.642  0.0000E+00  0.1600E+01
      3.743  0.0000E+00  0.1600E+01
      3.845  0.0000E+00  0.1600E+01
      3.946  0.0000E+00  0.1600E+01
