    3    3   10    1
  0.8535574E+02  0.6350160E-09  0.6350160E-09  0.6350160E-09  0.1500000E-16
   1.0000000000000000E-004
  CAR 
 unknown system                          
      8      1      8

  0.1262379E-14  0.1262379E-14  0.1262379E-14  0.1000000E+01
      1        -25.095346   1.000000
      2        -12.889532   1.000000
      3         -8.888776   1.000000
      4         -6.843427   1.000000
      5         -1.219350   0.000000
      6          2.165378   0.000000
      7          2.222593   0.000000
      8          2.563350   0.000000
