    3    3   10    1
  0.8535574E+02  0.6350160E-09  0.6350160E-09  0.6350160E-09  0.5000000E-15
   1.0000000000000000E-004
  CAR 
 unknown system                          
      8      1      8

  0.1262379E-14  0.1262379E-14  0.1262379E-14  0.1000000E+01
      1        -24.914514   1.000000
      2        -12.709313   1.000000
      3         -8.887219   1.000000
      4         -6.807081   1.000000
      5         -1.262206   0.000000
      6          2.074281   0.000000
      7          2.147464   0.000000
      8          2.547452   0.000000
