       N       E                     dE             d eps       ncg     rms          rms(c)
DAV:   1     0.720827863709E+02    0.72083E+02   -0.22048E+03    16   0.598E+02
DAV:   2    -0.201093042981E+01   -0.74094E+02   -0.74094E+02    32   0.114E+02
DAV:   3    -0.160401419386E+02   -0.14029E+02   -0.14029E+02    16   0.845E+01
DAV:   4    -0.163481086473E+02   -0.30797E+00   -0.30797E+00    16   0.123E+01
DAV:   5    -0.163520963960E+02   -0.39877E-02   -0.39877E-02    32   0.120E+00    0.817E+00
DAV:   6    -0.143672952936E+02    0.19848E+01   -0.98553E+00    16   0.227E+01    0.325E+00
DAV:   7    -0.142587217517E+02    0.10857E+00   -0.14965E-01    24   0.300E+00    0.198E+00
DAV:   8    -0.141802085170E+02    0.78513E-01   -0.67945E-02    16   0.269E+00    0.224E-01
DAV:   9    -0.141852286277E+02   -0.50201E-02   -0.78928E-03    24   0.567E-01    0.157E-01
DAV:  10    -0.141945483559E+02   -0.93197E-02   -0.43605E-03    16   0.585E-01    0.727E-02
DAV:  11    -0.141972172091E+02   -0.26689E-02   -0.22569E-03    24   0.303E-01    0.551E-02
DAV:  12    -0.141989281186E+02   -0.17109E-02   -0.64580E-04    16   0.160E-01    0.181E-02
DAV:  13    -0.141991749292E+02   -0.24681E-03   -0.64753E-05    24   0.679E-02    0.742E-03
DAV:  14    -0.141993194751E+02   -0.14455E-03   -0.17351E-05    24   0.259E-02    0.209E-03
DAV:  15    -0.141993335886E+02   -0.14114E-04   -0.13656E-06    24   0.684E-03
   1 F= -.14199334E+02 E0= -.14199334E+02  d E =-.141993E+02
       N       E                     dE             d eps       ncg     rms          rms(c)
DAV:   1    -0.141962702642E+02    0.30492E-02   -0.15701E+00    16   0.111E+01    0.833E-01
DAV:   2    -0.141838860140E+02    0.12384E-01   -0.77156E-02    24   0.202E+00    0.312E-01
DAV:   3    -0.141834170620E+02    0.46895E-03   -0.18213E-03    24   0.409E-01    0.161E-01
DAV:   4    -0.141833965396E+02    0.20522E-04   -0.93085E-04    24   0.290E-01
   2 F= -.14183397E+02 E0= -.14183397E+02  d E =0.159370E-01
       N       E                     dE             d eps       ncg     rms          rms(c)
DAV:   1    -0.142173333719E+02   -0.33916E-01   -0.51111E-01    16   0.634E+00    0.435E-01
DAV:   2    -0.142139410937E+02    0.33923E-02   -0.19857E-02    24   0.108E+00    0.178E-01
DAV:   3    -0.142137470652E+02    0.19403E-03   -0.96187E-04    16   0.266E-01    0.852E-02
DAV:   4    -0.142137315563E+02    0.15509E-04   -0.30515E-04    24   0.163E-01
   3 F= -.14213732E+02 E0= -.14213732E+02  d E =-.303350E-01
       N       E                     dE             d eps       ncg     rms          rms(c)
DAV:   1    -0.142139223374E+02   -0.17527E-03   -0.40984E-03    16   0.631E-01    0.310E-02
DAV:   2    -0.142139184844E+02    0.38529E-05   -0.10606E-04    32   0.889E-02
   4 F= -.14213918E+02 E0= -.14213918E+02  d E =-.186928E-03
