       N       E                     dE             d eps       ncg     rms          rms(c)
DAV:   1     0.720827863709E+02    0.72083E+02   -0.22048E+03    16   0.598E+02
DAV:   2    -0.201093042979E+01   -0.74094E+02   -0.74094E+02    32   0.114E+02
DAV:   3    -0.160401419386E+02   -0.14029E+02   -0.14029E+02    16   0.845E+01
DAV:   4    -0.163481086473E+02   -0.30797E+00   -0.30797E+00    16   0.123E+01
DAV:   5    -0.163520963960E+02   -0.39877E-02   -0.39877E-02    32   0.120E+00    0.817E+00
DAV:   6    -0.143672952936E+02    0.19848E+01   -0.98553E+00    16   0.227E+01    0.325E+00
DAV:   7    -0.142587217517E+02    0.10857E+00   -0.14965E-01    24   0.300E+00    0.198E+00
DAV:   8    -0.141802085171E+02    0.78513E-01   -0.67945E-02    16   0.269E+00    0.224E-01
DAV:   9    -0.141852286277E+02   -0.50201E-02   -0.78928E-03    24   0.567E-01    0.157E-01
DAV:  10    -0.141945483559E+02   -0.93197E-02   -0.43605E-03    16   0.585E-01    0.727E-02
DAV:  11    -0.141972172091E+02   -0.26689E-02   -0.22569E-03    24   0.303E-01    0.551E-02
DAV:  12    -0.141989281186E+02   -0.17109E-02   -0.64580E-04    16   0.160E-01    0.181E-02
DAV:  13    -0.141991749292E+02   -0.24681E-03   -0.64753E-05    24   0.679E-02    0.742E-03
DAV:  14    -0.141993194751E+02   -0.14455E-03   -0.17351E-05    24   0.259E-02    0.209E-03
DAV:  15    -0.141993335886E+02   -0.14114E-04   -0.13656E-06    24   0.684E-03
      1 T=     0. E= -.14199333E+02 F= -.14199334E+02 E0= -.14199334E+02  EK= 0.49403E-06 SP= 0.00E+00 SK= 0.00E+00
       N       E                     dE             d eps       ncg     rms          rms(c)
DAV:   1    -0.141993419936E+02   -0.22518E-04   -0.10495E-06    16   0.604E-03    0.255E-04
DAV:   2    -0.141993426480E+02   -0.65448E-06   -0.38776E-08    16   0.126E-03
      2 T=     0. E= -.14199339E+02 F= -.14199343E+02 E0= -.14199343E+02  EK= 0.39374E-05 SP= 0.00E+00 SK= 0.00E+00
       N       E                     dE             d eps       ncg     rms          rms(c)
DAV:   1    -0.141993502711E+02   -0.82775E-05   -0.10613E-06    16   0.677E-03    0.674E-04
DAV:   2    -0.141993504582E+02   -0.18710E-06   -0.68711E-08    16   0.199E-03
      3 T=     0. E= -.14199340E+02 F= -.14199350E+02 E0= -.14199350E+02  EK= 0.10702E-04 SP= 0.00E+00 SK= 0.00E+00
       N       E                     dE             d eps       ncg     rms          rms(c)
DAV:   1    -0.141993587343E+02   -0.84632E-05   -0.13019E-06    16   0.733E-03    0.611E-04
DAV:   2    -0.141993594111E+02   -0.67679E-06   -0.42897E-08    24   0.159E-03
      4 T=     0. E= -.14199339E+02 F= -.14199359E+02 E0= -.14199359E+02  EK= 0.20784E-04 SP= 0.00E+00 SK= 0.00E+00
       N       E                     dE             d eps       ncg     rms          rms(c)
DAV:   1    -0.141993730952E+02   -0.14361E-04   -0.86097E-08    16   0.250E-03    0.315E-04
DAV:   2    -0.141993734344E+02   -0.33920E-06   -0.10331E-08    24   0.779E-04
      5 T=     0. E= -.14199339E+02 F= -.14199373E+02 E0= -.14199373E+02  EK= 0.34179E-04 SP= 0.00E+00 SK= 0.00E+00
       N       E                     dE             d eps       ncg     rms          rms(c)
DAV:   1    -0.141993903677E+02   -0.17272E-04   -0.52874E-08    16   0.206E-03    0.211E-04
DAV:   2    -0.141993906280E+02   -0.26032E-06   -0.43935E-09    16   0.531E-04
      6 T=     0. E= -.14199340E+02 F= -.14199391E+02 E0= -.14199391E+02  EK= 0.50879E-04 SP= 0.00E+00 SK= 0.00E+00
       N       E                     dE             d eps       ncg     rms          rms(c)
DAV:   1    -0.141994080723E+02   -0.17705E-04   -0.10074E-07    16   0.233E-03    0.206E-04
DAV:   2    -0.141994088843E+02   -0.81202E-06   -0.19463E-08    24   0.834E-04
      7 T=     0. E= -.14199338E+02 F= -.14199409E+02 E0= -.14199409E+02  EK= 0.70878E-04 SP= 0.00E+00 SK= 0.00E+00
       N       E                     dE             d eps       ncg     rms          rms(c)
DAV:   1    -0.141994339272E+02   -0.25855E-04   -0.77323E-07    16   0.456E-03    0.268E-04
DAV:   2    -0.141994340428E+02   -0.11566E-06   -0.26252E-08    24   0.967E-04
      8 T=     1. E= -.14199340E+02 F= -.14199434E+02 E0= -.14199434E+02  EK= 0.94164E-04 SP= 0.00E+00 SK= 0.00E+00
       N       E                     dE             d eps       ncg     rms          rms(c)
DAV:   1    -0.141994601858E+02   -0.26259E-04   -0.89178E-07    16   0.485E-03    0.247E-04
DAV:   2    -0.141994603987E+02   -0.21291E-06   -0.30360E-08    24   0.105E-03
      9 T=     1. E= -.14199340E+02 F= -.14199460E+02 E0= -.14199460E+02  EK= 0.12073E-03 SP= 0.00E+00 SK= 0.00E+00
       N       E                     dE             d eps       ncg     rms          rms(c)
DAV:   1    -0.141994891349E+02   -0.28949E-04   -0.89405E-08    16   0.229E-03    0.159E-04
DAV:   2    -0.141994895759E+02   -0.44100E-06   -0.59840E-09    24   0.626E-04
     10 T=     1. E= -.14199339E+02 F= -.14199490E+02 E0= -.14199490E+02  EK= 0.15055E-03 SP= 0.00E+00 SK= 0.00E+00
