 vasp.6.4.2 20Jul23 (build Nov 21 2024 16:34:56) gamma-only                      
 executed on             LinuxGNU date 2025.03.20  11:38:55
 running    1 mpi-ranks, with    8 threads/rank, on    1 nodes
 distrk:  each k-point on    1 cores,    1 groups
 distr:  one band on NCORE=   1 cores,    1 groups


--------------------------------------------------------------------------------------------------------


 INCAR:
   ISMEAR = 0
   SIGMA = 0.1
   ENCUT = 520
   IBRION = 0
   NFREE = 2
   POTIM = 0.015
   NSW = 10
   EDIFFG = -0.02

 POTCAR:    PAW_PBE O 08Apr2002                   
 POTCAR:    PAW_PBE H 15Jun2001                   
 -----------------------------------------------------------------------------
|                                                                             |
|           W    W    AA    RRRRR   N    N  II  N    N   GGGG   !!!           |
|           W    W   A  A   R    R  NN   N  II  NN   N  G    G  !!!           |
|           W    W  A    A  R    R  N N  N  II  N N  N  G       !!!           |
|           W WW W  AAAAAA  RRRRR   N  N N  II  N  N N  G  GGG   !            |
|           WW  WW  A    A  R   R   N   NN  II  N   NN  G    G                |
|           W    W  A    A  R    R  N    N  II  N    N   GGGG   !!!           |
|                                                                             |
|     ISYM>0 for a molecular dynamics simmulation is not recommended.         |
|                                                                             |
 -----------------------------------------------------------------------------

 POTCAR:    PAW_PBE O 08Apr2002                   
   VRHFIN =O: s2p4                                                                                  
   LEXCH  = PE                                                                                      
   EATOM  =   432.3788 eV,   31.7789 Ry                                                             
                                                                                                    
   TITEL  = PAW_PBE O 08Apr2002                                                                     
   LULTRA =        F    use ultrasoft PP ?                                                          
   IUNSCR =        1    unscreen: 0-lin 1-nonlin 2-no                                               
   RPACOR =    1.200    partial core radius                                                         
   POMASS =   16.000; ZVAL   =    6.000    mass and valenz                                          
   RCORE  =    1.520    outmost cutoff radius                                                       
   RWIGS  =    1.550; RWIGS  =    0.820    wigner-seitz radius (au A)                               
   ENMAX  =  400.000; ENMIN  =  300.000 eV                                                          
   ICORE  =        2    local potential                                                             
   LCOR   =        T    correct aug charges                                                         
   LPAW   =        T    paw PP                                                                      
   EAUG   =  605.392                                                                                
   DEXC   =    0.000                                                                                
   RMAX   =    1.553    core radius for proj-oper                                                   
   RAUG   =    1.300    factor for augmentation sphere                                              
   RDEP   =    1.550    radius for radial grids                                                     
   RDEPT  =    1.329    core radius for aug-charge                                                  
                                                                                                    
   Atomic configuration                                                                             
    4 entries                                                                                       
     n  l   j            E        occ.                                                              
     1  0  0.50      -514.6923   2.0000                                                             
     2  0  0.50       -23.9615   2.0000                                                             
     2  1  0.50        -9.0305   4.0000                                                             
     3  2  1.50        -9.5241   0.0000                                                             
   Description                                                                                      
     l       E           TYP  RCUT    TYP  RCUT                                                     
     0    -23.9615318     23  1.200                                                                 
     0     -9.5240782     23  1.200                                                                 
     1     -9.0304911     23  1.520                                                                 
     1      8.1634956     23  1.520                                                                 
     2     -9.5240782      7  1.500                                                                 
  local pseudopotential read in
  partial core-charges read in
  partial kinetic energy density read in
  kinetic energy density of atom read in
  atomic valenz-charges read in
  non local Contribution for L=           0  read in
    real space projection operators read in
  non local Contribution for L=           0  read in
    real space projection operators read in
  non local Contribution for L=           1  read in
    real space projection operators read in
  non local Contribution for L=           1  read in
    real space projection operators read in
    PAW grid and wavefunctions read in

   number of l-projection  operators is LMAX  =           4
   number of lm-projection operators is LMMAX =           8

 POTCAR:    PAW_PBE H 15Jun2001                   
   VRHFIN =H: ultrasoft test                                                                        
   LEXCH  = PE                                                                                      
   EATOM  =    12.4884 eV,    0.9179 Ry                                                             
                                                                                                    
   TITEL  = PAW_PBE H 15Jun2001                                                                     
   LULTRA =        F    use ultrasoft PP ?                                                          
   IUNSCR =        0    unscreen: 0-lin 1-nonlin 2-no                                               
   RPACOR =    0.000    partial core radius                                                         
   POMASS =    1.000; ZVAL   =    1.000    mass and valenz                                          
   RCORE  =    1.100    outmost cutoff radius                                                       
   RWIGS  =    0.700; RWIGS  =    0.370    wigner-seitz radius (au A)                               
   ENMAX  =  250.000; ENMIN  =  200.000 eV                                                          
   RCLOC  =    0.701    cutoff for local pot                                                        
   LCOR   =        T    correct aug charges                                                         
   LPAW   =        T    paw PP                                                                      
   EAUG   =  400.000                                                                                
   RMAX   =    1.123    core radius for proj-oper                                                   
   RAUG   =    1.200    factor for augmentation sphere                                              
   RDEP   =    1.112    radius for radial grids                                                     
   RDEPT  =    0.926    core radius for aug-charge                                                  
                                                                                                    
   Atomic configuration                                                                             
    2 entries                                                                                       
     n  l   j            E        occ.                                                              
     1  0  0.50        -6.4927   1.0000                                                             
     2  1  0.50        -3.4015   0.0000                                                             
   Description                                                                                      
     l       E           TYP  RCUT    TYP  RCUT                                                     
     0     -6.4927494     23  1.100                                                                 
     0      6.8029130     23  1.100                                                                 
     1     -4.0817478     23  1.100                                                                 
  local pseudopotential read in
  atomic valenz-charges read in
  non local Contribution for L=           0  read in
    real space projection operators read in
  non local Contribution for L=           0  read in
    real space projection operators read in
  non local Contribution for L=           1  read in
    real space projection operators read in
    PAW grid and wavefunctions read in

   number of l-projection  operators is LMAX  =           3
   number of lm-projection operators is LMMAX =           5

  PAW_PBE O 08Apr2002                   :
 energy of atom  1       EATOM= -432.3788
 kinetic energy error for atom=    0.0208 (will be added to EATOM!!)
  PAW_PBE H 15Jun2001                   :
 energy of atom  2       EATOM=  -12.4884
 kinetic energy error for atom=    0.0014 (will be added to EATOM!!)


 POSCAR:    H2O
  positions in cartesian coordinates
  No initial velocities read in
 exchange correlation table for  LEXCH =        8
   RHO(1)=    0.500       N(1)  =     2000
   RHO(2)=  100.500       N(2)  =     4000



--------------------------------------------------------------------------------------------------------


 ion  position               nearest neighbor table
   1  0.000  0.000  0.000-   2 0.95   3 0.95
   2  0.092  0.881  0.000-   1 0.95
   3  0.092  0.119  0.000-   1 0.95

  LATTYP: Found a simple cubic cell.
 ALAT       =     6.3501600000
  
  Lattice vectors:
  
 A1 = (   6.3501600000,   0.0000000000,   0.0000000000)
 A2 = (   0.0000000000,   6.3501600000,   0.0000000000)
 A3 = (   0.0000000000,   0.0000000000,   6.3501600000)


Analysis of symmetry for initial positions (statically):
=====================================================================
 Subroutine PRICEL returns:
 Original cell was already a primitive cell.
 

 Routine SETGRP: Setting up the symmetry group for a 
 simple cubic supercell.


 Subroutine GETGRP returns: Found  4 space group operations
 (whereof  4 operations were pure point group operations)
 out of a pool of 48 trial point group operations.


The static configuration has the point symmetry C_2v.


Analysis of symmetry for dynamics (positions and initial velocities):
=====================================================================
 Subroutine PRICEL returns:
 Original cell was already a primitive cell.
 

 Routine SETGRP: Setting up the symmetry group for a 
 simple cubic supercell.


 Subroutine GETGRP returns: Found  4 space group operations
 (whereof  4 operations were pure point group operations)
 out of a pool of 48 trial point group operations.


The dynamic configuration has the point symmetry C_2v.


Analysis of constrained symmetry for selective dynamics:
=====================================================================
 Subroutine PRICEL returns:
 Original cell was already a primitive cell.
 

 Routine SETGRP: Setting up the symmetry group for a 
 simple cubic supercell.


 Subroutine GETGRP returns: Found  4 space group operations
 (whereof  4 operations were pure point group operations)
 out of a pool of 48 trial point group operations.


The constrained configuration has the point symmetry C_2v.


 Subroutine INISYM returns: Found  4 space group operations
 (whereof  4 operations are pure point group operations),
 and found     1 'primitive' translations


----------------------------------------------------------------------------------------

                                     Primitive cell                                     

  volume of cell :     256.0672

  direct lattice vectors                    reciprocal lattice vectors
     6.350160000  0.000000000  0.000000000     0.157476347  0.000000000  0.000000000
     0.000000000  6.350160000  0.000000000     0.000000000  0.157476347  0.000000000
     0.000000000  0.000000000  6.350160000     0.000000000  0.000000000  0.157476347

  length of vectors
     6.350160000  6.350160000  6.350160000     0.157476347  0.157476347  0.157476347

  position of ions in fractional coordinates (direct lattice)
     0.000000000  0.000000000  0.000000000
     0.091666667  0.880833333  0.000000000
     0.091666667  0.119166667  0.000000000

  ion indices of the primitive-cell ions
   primitive index   ion index
                 1           1
                 2           2
                 3           3

----------------------------------------------------------------------------------------



 KPOINTS: Gamma-point only                        

Automatic generation of k-mesh.
 Grid dimensions read from file:
 generate k-points for:    1    1    1

 Generating k-lattice:

  Cartesian coordinates                     Fractional coordinates (reciprocal lattice)
     0.157476347  0.000000000  0.000000000     1.000000000  0.000000000  0.000000000
     0.000000000  0.157476347  0.000000000     0.000000000  1.000000000  0.000000000
     0.000000000  0.000000000  0.157476347     0.000000000  0.000000000  1.000000000

  Length of vectors
     0.157476347  0.157476347  0.157476347

  Shift w.r.t. Gamma in fractional coordinates (k-lattice)
     0.000000000  0.000000000  0.000000000

 
 Subroutine IBZKPT returns following result:
 ===========================================
 
 Found      1 irreducible k-points:
 
 Following reciprocal coordinates:
            Coordinates               Weight
  0.000000  0.000000  0.000000      1.000000
 
 Following cartesian coordinates:
            Coordinates               Weight
  0.000000  0.000000  0.000000      1.000000
 


--------------------------------------------------------------------------------------------------------




 Dimension of arrays:
   k-points           NKPTS =      1   k-points in BZ     NKDIM =      1   number of bands    NBANDS=      8
   number of dos      NEDOS =    301   number of ions     NIONS =      3
   non local maximal  LDIM  =      4   non local SUM 2l+1 LMDIM =      8
   total plane-waves  NPLWV =  46656
   max r-space proj   IRMAX =      1   max aug-charges    IRDMAX=   2563
   dimension x,y,z NGX =    36 NGY =   36 NGZ =   36
   dimension x,y,z NGXF=    72 NGYF=   72 NGZF=   72
   support grid    NGXF=    72 NGYF=   72 NGZF=   72
   ions per type =               1   2
   NGX,Y,Z   is equivalent  to a cutoff of   9.42,  9.42,  9.42 a.u.
   NGXF,Y,Z  is equivalent  to a cutoff of  18.85, 18.85, 18.85 a.u.

 SYSTEM =  unknown system                          
 POSCAR =     H2O                                  

 Startparameter for this run:
   NWRITE =      2    write-flag & timer
   PREC   = normal    normal or accurate (medium, high low for compatibility)
   ISTART =      0    job   : 0-new  1-cont  2-samecut
   ICHARG =      2    charge: 1-file 2-atom 10-const
   ISPIN  =      1    spin polarized calculation?
   LNONCOLLINEAR =      F non collinear calculations
   LSORBIT =      F    spin-orbit coupling
   INIWAV =      1    electr: 0-lowe 1-rand  2-diag
   LASPH  =      F    aspherical Exc in radial PAW
 Electronic Relaxation 1
   ENCUT  =  520.0 eV  38.22 Ry    6.18 a.u.  11.81 11.81 11.81*2*pi/ulx,y,z
   ENINI  =  520.0     initial cutoff
   ENAUG  =  605.4 eV  augmentation charge cutoff
   NELM   =     60;   NELMIN=  2; NELMDL=  0     # of ELM steps 
   EDIFF  = 0.1E-03   stopping-criterion for ELM
   LREAL  =      F    real-space projection
   NLSPLINE    = F    spline interpolate recip. space projectors
   LCOMPAT=      F    compatible to vasp.4.4
   GGA_COMPAT  = T    GGA compatible to vasp.4.4-vasp.4.6
   LMAXPAW     = -100 max onsite density
   LMAXMIX     =    2 max onsite mixed and CHGCAR
   VOSKOWN=      0    Vosko Wilk Nusair interpolation
   ROPT   =    0.00000   0.00000
 Ionic relaxation
   EDIFFG = -.2E-01   stopping-criterion for IOM
   NSW    =     10    number of steps for IOM
   NBLOCK =      1;   KBLOCK =     10    inner block; outer block 
   IBRION =      0    ionic relax: 0-MD 1-quasi-New 2-CG
   NFREE  =      2    steps in history (QN), initial steepest desc. (CG)
   ISIF   =      0    stress and relaxation
   IWAVPR =     12    prediction:  0-non 1-charg 2-wave 3-comb
   ISYM   =      2    0-nonsym 1-usesym 2-fastsym
   LCORR  =      T    Harris-Foulkes like correction to forces

   POTIM  = 0.0150    time-step for ionic-motion
   TEIN   =    0.0    initial temperature
   TEBEG  =    0.0;   TEEND  =   0.0 temperature during run
   SMASS  =  -3.00    Nose mass-parameter (am)
   estimated Nose-frequenzy (Omega)   =  0.10E-29 period in steps = 0.42E+48 mass=  -0.922E-27a.u.
   SCALEE = 1.0000    scale energy and forces
   NPACO  =    256;   APACO  = 10.0  distance and # of slots for P.C.
   PSTRESS=    0.0 pullay stress

  Mass of Ions in am
   POMASS =  16.00  1.00
  Ionic Valenz
   ZVAL   =   6.00  1.00
  Atomic Wigner-Seitz radii
   RWIGS  =  -1.00 -1.00
  virtual crystal weights 
   VCA    =   1.00  1.00
   NELECT =       8.0000    total number of electrons
   NUPDOWN=      -1.0000    fix difference up-down

 DOS related values:
   EMIN   =  10.00;   EMAX   =-10.00  energy-range for DOS
   EFERMI =   0.00;   METHOD = LEGACY      
   ISMEAR =     0;   SIGMA  =   0.10  broadening in eV -4-tet -1-fermi 0-gaus

 Electronic relaxation 2 (details)
   IALGO  =     38    algorithm
   LDIAG  =      T    sub-space diagonalisation (order eigenvalues)
   LSUBROT=      F    optimize rotation matrix (better conditioning)
   TURBO    =      0    0=normal 1=particle mesh
   IRESTART =      0    0=no restart 2=restart with 2 vectors
   NREBOOT  =      0    no. of reboots
   NMIN     =      0    reboot dimension
   EREF     =   0.00    reference energy to select bands
   IMIX   =      4    mixing-type and parameters
     AMIX     =   0.40;   BMIX     =  1.00
     AMIX_MAG =   1.60;   BMIX_MAG =  1.00
     AMIN     =   0.10
     WC   =   100.;   INIMIX=   1;  MIXPRE=   1;  MAXMIX= -45

 Intra band minimization:
   WEIMIN = 0.0010     energy-eigenvalue tresh-hold
   EBREAK =  0.31E-05  absolut break condition
   DEPER  =   0.30     relativ break condition  

   TIME   =   0.40     timestep for ELM

  volume/ion in A,a.u.               =      85.36       576.01
  Fermi-wavevector in a.u.,A,eV,Ry     =   0.515609  0.974359  3.617139  0.265852
  Thomas-Fermi vector in A             =   1.531137

 Write flags
   LWAVE        =      T    write WAVECAR
   LDOWNSAMPLE  =      F    k-point downsampling of WAVECAR
   LCHARG       =      T    write CHGCAR
   LVTOT        =      F    write LOCPOT, total local potential
   LVHAR        =      F    write LOCPOT, Hartree potential only
   LELF         =      F    write electronic localiz. function (ELF)
   LORBIT       =      0    0 simple, 1 ext, 2 COOP (PROOUT), +10 PAW based schemes


 Dipole corrections
   LMONO  =      F    monopole corrections only (constant potential shift)
   LDIPOL =      F    correct potential (dipole corrections)
   IDIPOL =      0    1-x, 2-y, 3-z, 4-all directions 
   EPSILON=  1.0000000 bulk dielectric constant

 Exchange correlation treatment:
   GGA     =    --    GGA type
   LEXCH   =     8    internal setting for exchange type
   LIBXC   =     F    Libxc                    
   VOSKOWN =     0    Vosko Wilk Nusair interpolation
   LHFCALC =     F    Hartree Fock is set to
   LHFONE  =     F    Hartree Fock one center treatment
   AEXX    =    0.0000 exact exchange contribution

 Linear response parameters
   LEPSILON=     F    determine dielectric tensor
   LRPA    =     F    only Hartree local field effects (RPA)
   LNABLA  =     F    use nabla operator in PAW spheres
   LVEL    =     F    velocity operator in full k-point grid
   CSHIFT  =0.1000    complex shift for real part using Kramers Kronig
   OMEGAMAX=  -1.0    maximum frequency
   DEG_THRESHOLD= 0.2000000E-02 threshold for treating states as degnerate
   RTIME   =   -0.100 relaxation time in fs
  (WPLASMAI=    0.000 imaginary part of plasma frequency in eV, 0.658/RTIME)
   DFIELD  = 0.0000000 0.0000000 0.0000000 field for delta impulse in time

  Optional k-point grid parameters
   LKPOINTS_OPT  =     F    use optional k-point grid
   KPOINTS_OPT_MODE=     1    mode for optional k-point grid

 Orbital magnetization related:
   ORBITALMAG=     F  switch on orbital magnetization
   LCHIMAG   =     F  perturbation theory with respect to B field
   DQ        =  0.001000  dq finite difference perturbation B field
   LLRAUG    =     F  two centre corrections for induced B field
   LBONE     =     F  B-component reconstruction in AE one-centre
   LVGVCALC  =     T  calculate vGv susceptibility
   LVGVAPPL  =     F  apply vGv susceptibility instead of pGv for G=0

 Random number generation:
   RANDOM_GENERATOR = DEFAULT
   PCG_SEED         = not used


--------------------------------------------------------------------------------------------------------


 molecular dynamics for ions
   using a microcanonical ensemble
   using selective dynamics as specified on POSCAR
   WARNING: If single coordinates had been selected the selection of coordinates
            is made according to the corresponding   d i r e c t   coordinates!
            Don't support selection of single cartesian coordinates -- sorry ... !
 charge density and potential will be updated during run
 non-spin polarized calculation
 Variant of blocked Davidson
 Davidson routine will perform the subspace rotation
 perform sub-space diagonalisation
    after iterative eigenvector-optimisation
 modified Broyden-mixing scheme, WC =      100.0
 initial mixing is a Kerker type mixing with AMIX =  0.4000 and BMIX =      1.0000
 Hartree-type preconditioning will be used
 using additional bands            4
 reciprocal scheme for non local part
 use partial core corrections
 calculate Harris-corrections to forces   (improved forces if not selfconsistent)
 use gradient corrections 
 use of overlap-Matrix (Vanderbilt PP)
 Gauss-broadening in eV      SIGMA  =   0.10


--------------------------------------------------------------------------------------------------------


  energy-cutoff  :      520.00
  volume of cell :      256.07
      direct lattice vectors                 reciprocal lattice vectors
     6.350160000  0.000000000  0.000000000     0.157476347  0.000000000  0.000000000
     0.000000000  6.350160000  0.000000000     0.000000000  0.157476347  0.000000000
     0.000000000  0.000000000  6.350160000     0.000000000  0.000000000  0.157476347

  length of vectors
     6.350160000  6.350160000  6.350160000     0.157476347  0.157476347  0.157476347



 k-points in units of 2pi/SCALE and weight: Gamma-point only                        
   0.00000000  0.00000000  0.00000000       1.000

 k-points in reciprocal lattice and weights: Gamma-point only                        
   0.00000000  0.00000000  0.00000000       1.000

 position of ions in fractional coordinates (direct lattice) 
   0.00000000  0.00000000  0.00000000
   0.09166667  0.88083333  0.00000000
   0.09166667  0.11916667  0.00000000

 position of ions in cartesian coordinates  (Angst):
   0.00000000  0.00000000  0.00000000
   0.58209800  5.59343260  0.00000000
   0.58209800  0.75672740  0.00000000



--------------------------------------------------------------------------------------------------------


 use serial FFT for orbitals x direction half grid
 k-point   1 :   0.0000 0.0000 0.0000  plane waves:    3466

 maximum and minimum number of plane-waves per node :      3466     3466

 maximum number of plane-waves:      3466
 maximum index in each direction: 
   IXMAX=   11   IYMAX=   11   IZMAX=   11
   IXMIN=    0   IYMIN=  -11   IZMIN=  -11


 serial   3D FFT for wavefunctions
 parallel 3D FFT for charge:
    minimum data exchange during FFTs selected (reduces bandwidth)


 total amount of memory used by VASP MPI-rank0    67321. kBytes
=======================================================================

   base      :      30000. kBytes
   nonl-proj :        610. kBytes
   fftplans  :      13060. kBytes
   grid      :      23203. kBytes
   one-center:          4. kBytes
   wavefun   :        444. kBytes

     INWAV:  cpu time      0.0023: real time      0.0000
 Broyden mixing: mesh for mixing (old mesh)
   NGX = 23   NGY = 23   NGZ = 23
  (NGX  = 72   NGY  = 72   NGZ  = 72)
  gives a total of  12167 points

 initial charge density was supplied:
 charge density of overlapping atoms calculated
 number of electron       8.0000000 magnetization 
 keeping initial charge density in first step


--------------------------------------------------------------------------------------------------------


 Maximum index for augmentation-charges         2301 (set IRDMAX)


--------------------------------------------------------------------------------------------------------


 First call to EWALD:  gamma=   0.279
 Maximum number of real-space cells 3x 3x 3
 Maximum number of reciprocal cells 3x 3x 3

    FEWALD:  cpu time      0.6132: real time      0.0782


--------------------------------------- Ionic step        1  -------------------------------------------




--------------------------------------- Iteration      1(   1)  ---------------------------------------


    POTLOK:  cpu time      0.3850: real time      0.0709
    SETDIJ:  cpu time      0.0072: real time      0.0017
     EDDAV:  cpu time     15.1153: real time      1.9019
       DOS:  cpu time      0.0010: real time      0.0002
    --------------------------------------------
      LOOP:  cpu time     15.5087: real time      1.9747

 eigenvalue-minimisations  :    16
 total energy-change (2. order) : 0.7208279E+02  (-0.2204775E+03)
 number of electron       8.0000000 magnetization 
 augmentation part        8.0000000 magnetization 

 Free energy of the ion-electron system (eV)
  ---------------------------------------------------
  alpha Z        PSCENC =         0.87575161
  Ewald energy   TEWEN  =       -13.80331150
  -Hartree energ DENC   =      -348.16693783
  -exchange      EXHF   =         0.00000000
  -V(xc)+E(xc)   XCENC  =        32.24976667
  PAW double counting   =       350.81753176     -352.63395800
  entropy T*S    EENTRO =        -0.00000000
  eigenvalues    EBANDS =       -54.58798462
  atomic energy  EATOM  =       457.33192828
  Solvation  Ediel_sol  =         0.00000000
  ---------------------------------------------------
  free energy    TOTEN  =        72.08278637 eV

  energy without entropy =       72.08278637  energy(sigma->0) =       72.08278637


--------------------------------------------------------------------------------------------------------




--------------------------------------- Iteration      1(   2)  ---------------------------------------


     EDDAV:  cpu time     28.1089: real time      3.5361
       DOS:  cpu time      0.0011: real time      0.0001
    --------------------------------------------
      LOOP:  cpu time     28.1100: real time      3.5362

 eigenvalue-minimisations  :    32
 total energy-change (2. order) :-0.7409372E+02  (-0.7409372E+02)
 number of electron       8.0000000 magnetization 
 augmentation part        8.0000000 magnetization 

 Free energy of the ion-electron system (eV)
  ---------------------------------------------------
  alpha Z        PSCENC =         0.87575161
  Ewald energy   TEWEN  =       -13.80331150
  -Hartree energ DENC   =      -348.16693783
  -exchange      EXHF   =         0.00000000
  -V(xc)+E(xc)   XCENC  =        32.24976667
  PAW double counting   =       350.81753176     -352.63395800
  entropy T*S    EENTRO =        -0.00000000
  eigenvalues    EBANDS =      -128.68170142
  atomic energy  EATOM  =       457.33192828
  Solvation  Ediel_sol  =         0.00000000
  ---------------------------------------------------
  free energy    TOTEN  =        -2.01093043 eV

  energy without entropy =       -2.01093043  energy(sigma->0) =       -2.01093043


--------------------------------------------------------------------------------------------------------




--------------------------------------- Iteration      1(   3)  ---------------------------------------


     EDDAV:  cpu time     16.9732: real time      2.1419
       DOS:  cpu time      0.0010: real time      0.0001
    --------------------------------------------
      LOOP:  cpu time     16.9742: real time      2.1420

 eigenvalue-minimisations  :    16
 total energy-change (2. order) :-0.1402921E+02  (-0.1402921E+02)
 number of electron       8.0000000 magnetization 
 augmentation part        8.0000000 magnetization 

 Free energy of the ion-electron system (eV)
  ---------------------------------------------------
  alpha Z        PSCENC =         0.87575161
  Ewald energy   TEWEN  =       -13.80331150
  -Hartree energ DENC   =      -348.16693783
  -exchange      EXHF   =         0.00000000
  -V(xc)+E(xc)   XCENC  =        32.24976667
  PAW double counting   =       350.81753176     -352.63395800
  entropy T*S    EENTRO =        -0.00000000
  eigenvalues    EBANDS =      -142.71091293
  atomic energy  EATOM  =       457.33192828
  Solvation  Ediel_sol  =         0.00000000
  ---------------------------------------------------
  free energy    TOTEN  =       -16.04014194 eV

  energy without entropy =      -16.04014194  energy(sigma->0) =      -16.04014194


--------------------------------------------------------------------------------------------------------




--------------------------------------- Iteration      1(   4)  ---------------------------------------


     EDDAV:  cpu time     15.2605: real time      1.9223
       DOS:  cpu time      0.0017: real time      0.0003
    --------------------------------------------
      LOOP:  cpu time     15.2622: real time      1.9225

 eigenvalue-minimisations  :    16
 total energy-change (2. order) :-0.3079667E+00  (-0.3079667E+00)
 number of electron       8.0000000 magnetization 
 augmentation part        8.0000000 magnetization 

 Free energy of the ion-electron system (eV)
  ---------------------------------------------------
  alpha Z        PSCENC =         0.87575161
  Ewald energy   TEWEN  =       -13.80331150
  -Hartree energ DENC   =      -348.16693783
  -exchange      EXHF   =         0.00000000
  -V(xc)+E(xc)   XCENC  =        32.24976667
  PAW double counting   =       350.81753176     -352.63395800
  entropy T*S    EENTRO =        -0.00000000
  eigenvalues    EBANDS =      -143.01887964
  atomic energy  EATOM  =       457.33192828
  Solvation  Ediel_sol  =         0.00000000
  ---------------------------------------------------
  free energy    TOTEN  =       -16.34810865 eV

  energy without entropy =      -16.34810865  energy(sigma->0) =      -16.34810865


--------------------------------------------------------------------------------------------------------




--------------------------------------- Iteration      1(   5)  ---------------------------------------


     EDDAV:  cpu time     27.4091: real time      3.4337
       DOS:  cpu time      0.0022: real time      0.0003
    CHARGE:  cpu time      0.7190: real time      0.0928
    MIXING:  cpu time      0.0141: real time      0.0043
    --------------------------------------------
      LOOP:  cpu time     28.1444: real time      3.5312

 eigenvalue-minimisations  :    32
 total energy-change (2. order) :-0.3987749E-02  (-0.3987749E-02)
 number of electron       8.0000050 magnetization 
 augmentation part        0.8481447 magnetization 

 Broyden mixing:
  rms(total) = 0.81673E+00    rms(broyden)= 0.81585E+00
  rms(prec ) = 0.14095E+01
  weight for this iteration     100.00

 Free energy of the ion-electron system (eV)
  ---------------------------------------------------
  alpha Z        PSCENC =         0.87575161
  Ewald energy   TEWEN  =       -13.80331150
  -Hartree energ DENC   =      -348.16693783
  -exchange      EXHF   =         0.00000000
  -V(xc)+E(xc)   XCENC  =        32.24976667
  PAW double counting   =       350.81753176     -352.63395800
  entropy T*S    EENTRO =        -0.00000000
  eigenvalues    EBANDS =      -143.02286738
  atomic energy  EATOM  =       457.33192828
  Solvation  Ediel_sol  =         0.00000000
  ---------------------------------------------------
  free energy    TOTEN  =       -16.35209640 eV

  energy without entropy =      -16.35209640  energy(sigma->0) =      -16.35209640


--------------------------------------------------------------------------------------------------------




--------------------------------------- Iteration      1(   6)  ---------------------------------------


    POTLOK:  cpu time      0.3413: real time      0.0639
    SETDIJ:  cpu time      0.0016: real time      0.0016
     EDDAV:  cpu time     15.6732: real time      1.9731
       DOS:  cpu time      0.0008: real time      0.0001
    CHARGE:  cpu time      0.6631: real time      0.0855
    MIXING:  cpu time      0.0202: real time      0.0046
    --------------------------------------------
      LOOP:  cpu time     16.7003: real time      2.1289

 eigenvalue-minimisations  :    16
 total energy-change (2. order) : 0.1984801E+01  (-0.9855271E+00)
 number of electron       8.0000041 magnetization 
 augmentation part        0.7091644 magnetization 

 Broyden mixing:
  rms(total) = 0.32486E+00    rms(broyden)= 0.32454E+00
  rms(prec ) = 0.46186E+00
  weight for this iteration     100.00

 eigenvalues of (default mixing * dielectric matrix)
  average eigenvalue GAMMA=   0.9292
  0.9292

 Free energy of the ion-electron system (eV)
  ---------------------------------------------------
  alpha Z        PSCENC =         0.87575161
  Ewald energy   TEWEN  =       -13.80331150
  -Hartree energ DENC   =      -372.84729835
  -exchange      EXHF   =         0.00000000
  -V(xc)+E(xc)   XCENC  =        33.63384855
  PAW double counting   =       448.01027742     -450.20840727
  entropy T*S    EENTRO =        -0.00000000
  eigenvalues    EBANDS =      -117.36008403
  atomic energy  EATOM  =       457.33192828
  Solvation  Ediel_sol  =         0.00000000
  ---------------------------------------------------
  free energy    TOTEN  =       -14.36729529 eV

  energy without entropy =      -14.36729529  energy(sigma->0) =      -14.36729529


--------------------------------------------------------------------------------------------------------




--------------------------------------- Iteration      1(   7)  ---------------------------------------


    POTLOK:  cpu time      0.3759: real time      0.0699
    SETDIJ:  cpu time      0.0166: real time      0.0014
     EDDAV:  cpu time     20.5361: real time      2.5881
       DOS:  cpu time      0.0019: real time      0.0003
    CHARGE:  cpu time      0.0537: real time      0.0091
    MIXING:  cpu time      0.0705: real time      0.0076
    --------------------------------------------
      LOOP:  cpu time     21.0547: real time      2.6765

 eigenvalue-minimisations  :    24
 total energy-change (2. order) : 0.1085735E+00  (-0.1496529E-01)
 number of electron       8.0000041 magnetization 
 augmentation part        0.7043056 magnetization 

 Broyden mixing:
  rms(total) = 0.19781E+00    rms(broyden)= 0.19780E+00
  rms(prec ) = 0.28744E+00
  weight for this iteration     100.00

 eigenvalues of (default mixing * dielectric matrix)
  average eigenvalue GAMMA=   1.7217
  1.0453  2.3980

 Free energy of the ion-electron system (eV)
  ---------------------------------------------------
  alpha Z        PSCENC =         0.87575161
  Ewald energy   TEWEN  =       -13.80331150
  -Hartree energ DENC   =      -376.82206387
  -exchange      EXHF   =         0.00000000
  -V(xc)+E(xc)   XCENC  =        33.84787993
  PAW double counting   =       496.12828171     -498.29473707
  entropy T*S    EENTRO =        -0.00000000
  eigenvalues    EBANDS =      -113.52245083
  atomic energy  EATOM  =       457.33192828
  Solvation  Ediel_sol  =         0.00000000
  ---------------------------------------------------
  free energy    TOTEN  =       -14.25872175 eV

  energy without entropy =      -14.25872175  energy(sigma->0) =      -14.25872175


--------------------------------------------------------------------------------------------------------




--------------------------------------- Iteration      1(   8)  ---------------------------------------


    POTLOK:  cpu time      0.7442: real time      0.1145
    SETDIJ:  cpu time      0.0015: real time      0.0015
     EDDAV:  cpu time     17.0683: real time      2.1450
       DOS:  cpu time      0.0007: real time      0.0001
    CHARGE:  cpu time      0.6437: real time      0.0843
    MIXING:  cpu time      0.0362: real time      0.0049
    --------------------------------------------
      LOOP:  cpu time     18.4945: real time      2.3502

 eigenvalue-minimisations  :    16
 total energy-change (2. order) : 0.7851323E-01  (-0.6794549E-02)
 number of electron       8.0000041 magnetization 
 augmentation part        0.7036240 magnetization 

 Broyden mixing:
  rms(total) = 0.22444E-01    rms(broyden)= 0.22439E-01
  rms(prec ) = 0.57437E-01
  weight for this iteration     100.00

 eigenvalues of (default mixing * dielectric matrix)
  average eigenvalue GAMMA=   1.4806
  2.3906  1.0256  1.0256

 Free energy of the ion-electron system (eV)
  ---------------------------------------------------
  alpha Z        PSCENC =         0.87575161
  Ewald energy   TEWEN  =       -13.80331150
  -Hartree energ DENC   =      -382.08520516
  -exchange      EXHF   =         0.00000000
  -V(xc)+E(xc)   XCENC  =        34.15423285
  PAW double counting   =       568.10510087     -570.22945366
  entropy T*S    EENTRO =        -0.00000000
  eigenvalues    EBANDS =      -108.52925180
  atomic energy  EATOM  =       457.33192828
  Solvation  Ediel_sol  =         0.00000000
  ---------------------------------------------------
  free energy    TOTEN  =       -14.18020852 eV

  energy without entropy =      -14.18020852  energy(sigma->0) =      -14.18020852


--------------------------------------------------------------------------------------------------------




--------------------------------------- Iteration      1(   9)  ---------------------------------------


    POTLOK:  cpu time      0.3224: real time      0.0629
    SETDIJ:  cpu time      0.0183: real time      0.0015
     EDDAV:  cpu time     21.0805: real time      2.6467
       DOS:  cpu time      0.0009: real time      0.0001
    CHARGE:  cpu time      0.6369: real time      0.0813
    MIXING:  cpu time      0.0173: real time      0.0051
    --------------------------------------------
      LOOP:  cpu time     22.0762: real time      2.7976

 eigenvalue-minimisations  :    24
 total energy-change (2. order) :-0.5020111E-02  (-0.7892783E-03)
 number of electron       8.0000041 magnetization 
 augmentation part        0.6998075 magnetization 

 Broyden mixing:
  rms(total) = 0.15688E-01    rms(broyden)= 0.15680E-01
  rms(prec ) = 0.38441E-01
  weight for this iteration     100.00

 eigenvalues of (default mixing * dielectric matrix)
  average eigenvalue GAMMA=   1.9011
  0.9974  0.9974  3.0229  2.5867

 Free energy of the ion-electron system (eV)
  ---------------------------------------------------
  alpha Z        PSCENC =         0.87575161
  Ewald energy   TEWEN  =       -13.80331150
  -Hartree energ DENC   =      -382.83887372
  -exchange      EXHF   =         0.00000000
  -V(xc)+E(xc)   XCENC  =        34.18244235
  PAW double counting   =       563.60723086     -565.73782350
  entropy T*S    EENTRO =        -0.00000000
  eigenvalues    EBANDS =      -107.80257299
  atomic energy  EATOM  =       457.33192828
  Solvation  Ediel_sol  =         0.00000000
  ---------------------------------------------------
  free energy    TOTEN  =       -14.18522863 eV

  energy without entropy =      -14.18522863  energy(sigma->0) =      -14.18522863


--------------------------------------------------------------------------------------------------------




--------------------------------------- Iteration      1(  10)  ---------------------------------------


    POTLOK:  cpu time      0.3350: real time      0.0634
    SETDIJ:  cpu time      0.0015: real time      0.0015
     EDDAV:  cpu time     15.3379: real time      1.9271
       DOS:  cpu time      0.0008: real time      0.0001
    CHARGE:  cpu time      0.6461: real time      0.0829
    MIXING:  cpu time      0.0183: real time      0.0053
    --------------------------------------------
      LOOP:  cpu time     16.3396: real time      2.0803

 eigenvalue-minimisations  :    16
 total energy-change (2. order) :-0.9319728E-02  (-0.4360453E-03)
 number of electron       8.0000041 magnetization 
 augmentation part        0.7014946 magnetization 

 Broyden mixing:
  rms(total) = 0.72682E-02    rms(broyden)= 0.72652E-02
  rms(prec ) = 0.13074E-01
  weight for this iteration     100.00

 eigenvalues of (default mixing * dielectric matrix)
  average eigenvalue GAMMA=   1.7844
  3.3262  2.3825  0.9906  0.9906  1.2321

 Free energy of the ion-electron system (eV)
  ---------------------------------------------------
  alpha Z        PSCENC =         0.87575161
  Ewald energy   TEWEN  =       -13.80331150
  -Hartree energ DENC   =      -383.04112813
  -exchange      EXHF   =         0.00000000
  -V(xc)+E(xc)   XCENC  =        34.17015693
  PAW double counting   =       553.80041301     -555.92179285
  entropy T*S    EENTRO =        -0.00000000
  eigenvalues    EBANDS =      -107.60656571
  atomic energy  EATOM  =       457.33192828
  Solvation  Ediel_sol  =         0.00000000
  ---------------------------------------------------
  free energy    TOTEN  =       -14.19454836 eV

  energy without entropy =      -14.19454836  energy(sigma->0) =      -14.19454836


--------------------------------------------------------------------------------------------------------




--------------------------------------- Iteration      1(  11)  ---------------------------------------


    POTLOK:  cpu time      0.3361: real time      0.0633
    SETDIJ:  cpu time      0.0015: real time      0.0015
     EDDAV:  cpu time     21.6396: real time      2.7297
       DOS:  cpu time      0.0010: real time      0.0001
    CHARGE:  cpu time      0.6327: real time      0.0853
    MIXING:  cpu time      0.0280: real time      0.0056
    --------------------------------------------
      LOOP:  cpu time     22.6388: real time      2.8856

 eigenvalue-minimisations  :    24
 total energy-change (2. order) :-0.2668853E-02  (-0.2256876E-03)
 number of electron       8.0000041 magnetization 
 augmentation part        0.6995577 magnetization 

 Broyden mixing:
  rms(total) = 0.55088E-02    rms(broyden)= 0.55058E-02
  rms(prec ) = 0.10738E-01
  weight for this iteration     100.00

 eigenvalues of (default mixing * dielectric matrix)
  average eigenvalue GAMMA=   2.0523
  4.1411  2.8704  2.3701  1.0623  0.9350  0.9350

 Free energy of the ion-electron system (eV)
  ---------------------------------------------------
  alpha Z        PSCENC =         0.87575161
  Ewald energy   TEWEN  =       -13.80331150
  -Hartree energ DENC   =      -383.46089519
  -exchange      EXHF   =         0.00000000
  -V(xc)+E(xc)   XCENC  =        34.19208014
  PAW double counting   =       557.12398869     -559.24972285
  entropy T*S    EENTRO =        -0.00000000
  eigenvalues    EBANDS =      -107.20703639
  atomic energy  EATOM  =       457.33192828
  Solvation  Ediel_sol  =         0.00000000
  ---------------------------------------------------
  free energy    TOTEN  =       -14.19721721 eV

  energy without entropy =      -14.19721721  energy(sigma->0) =      -14.19721721


--------------------------------------------------------------------------------------------------------




--------------------------------------- Iteration      1(  12)  ---------------------------------------


    POTLOK:  cpu time      0.3321: real time      0.0624
    SETDIJ:  cpu time      0.0013: real time      0.0013
     EDDAV:  cpu time     15.2671: real time      1.9162
       DOS:  cpu time      0.0030: real time      0.0001
    CHARGE:  cpu time      0.6619: real time      0.0862
    MIXING:  cpu time      0.0430: real time      0.0058
    --------------------------------------------
      LOOP:  cpu time     16.3084: real time      2.0722

 eigenvalue-minimisations  :    16
 total energy-change (2. order) :-0.1710910E-02  (-0.6458035E-04)
 number of electron       8.0000041 magnetization 
 augmentation part        0.7003552 magnetization 

 Broyden mixing:
  rms(total) = 0.18148E-02    rms(broyden)= 0.18143E-02
  rms(prec ) = 0.28664E-02
  weight for this iteration     100.00

 eigenvalues of (default mixing * dielectric matrix)
  average eigenvalue GAMMA=   1.9441
  4.1642  2.8267  2.5007  1.1054  1.1054  0.9534  0.9534

 Free energy of the ion-electron system (eV)
  ---------------------------------------------------
  alpha Z        PSCENC =         0.87575161
  Ewald energy   TEWEN  =       -13.80331150
  -Hartree energ DENC   =      -383.27827772
  -exchange      EXHF   =         0.00000000
  -V(xc)+E(xc)   XCENC  =        34.17914882
  PAW double counting   =       556.83468651     -558.95857977
  entropy T*S    EENTRO =        -0.00000000
  eigenvalues    EBANDS =      -107.38027435
  atomic energy  EATOM  =       457.33192828
  Solvation  Ediel_sol  =         0.00000000
  ---------------------------------------------------
  free energy    TOTEN  =       -14.19892812 eV

  energy without entropy =      -14.19892812  energy(sigma->0) =      -14.19892812


--------------------------------------------------------------------------------------------------------




--------------------------------------- Iteration      1(  13)  ---------------------------------------


    POTLOK:  cpu time      0.3632: real time      0.0680
    SETDIJ:  cpu time      0.0017: real time      0.0017
     EDDAV:  cpu time     19.8726: real time      2.5019
       DOS:  cpu time      0.0005: real time      0.0001
    CHARGE:  cpu time      0.6894: real time      0.0930
    MIXING:  cpu time      0.0335: real time      0.0080
    --------------------------------------------
      LOOP:  cpu time     20.9609: real time      2.6726

 eigenvalue-minimisations  :    24
 total energy-change (2. order) :-0.2468106E-03  (-0.6475274E-05)
 number of electron       8.0000041 magnetization 
 augmentation part        0.7006190 magnetization 

 Broyden mixing:
  rms(total) = 0.74179E-03    rms(broyden)= 0.74053E-03
  rms(prec ) = 0.11384E-02
  weight for this iteration     100.00

 eigenvalues of (default mixing * dielectric matrix)
  average eigenvalue GAMMA=   2.0482
  4.7493  2.7896  2.7207  2.2418  1.1077  0.9307  0.9307  0.9153

 Free energy of the ion-electron system (eV)
  ---------------------------------------------------
  alpha Z        PSCENC =         0.87575161
  Ewald energy   TEWEN  =       -13.80331150
  -Hartree energ DENC   =      -383.24118033
  -exchange      EXHF   =         0.00000000
  -V(xc)+E(xc)   XCENC  =        34.17707184
  PAW double counting   =       556.93407512     -559.05731117
  entropy T*S    EENTRO =        -0.00000000
  eigenvalues    EBANDS =      -107.41619878
  atomic energy  EATOM  =       457.33192828
  Solvation  Ediel_sol  =         0.00000000
  ---------------------------------------------------
  free energy    TOTEN  =       -14.19917493 eV

  energy without entropy =      -14.19917493  energy(sigma->0) =      -14.19917493


--------------------------------------------------------------------------------------------------------




--------------------------------------- Iteration      1(  14)  ---------------------------------------


    POTLOK:  cpu time      0.3449: real time      0.0655
    SETDIJ:  cpu time      0.0016: real time      0.0016
     EDDAV:  cpu time     19.2152: real time      2.4222
       DOS:  cpu time      0.0008: real time      0.0001
    CHARGE:  cpu time      0.0503: real time      0.0090
    MIXING:  cpu time      0.0959: real time      0.0098
    --------------------------------------------
      LOOP:  cpu time     19.7088: real time      2.5083

 eigenvalue-minimisations  :    24
 total energy-change (2. order) :-0.1445459E-03  (-0.1735060E-05)
 number of electron       8.0000041 magnetization 
 augmentation part        0.7005907 magnetization 

 Broyden mixing:
  rms(total) = 0.20890E-03    rms(broyden)= 0.20873E-03
  rms(prec ) = 0.32016E-03
  weight for this iteration     100.00

 eigenvalues of (default mixing * dielectric matrix)
  average eigenvalue GAMMA=   2.0687
  4.9588  3.2984  2.4302  2.4302  1.5117  1.1510  0.9402  0.9402  0.9580

 Free energy of the ion-electron system (eV)
  ---------------------------------------------------
  alpha Z        PSCENC =         0.87575161
  Ewald energy   TEWEN  =       -13.80331150
  -Hartree energ DENC   =      -383.22554698
  -exchange      EXHF   =         0.00000000
  -V(xc)+E(xc)   XCENC  =        34.17604714
  PAW double counting   =       556.72597306     -558.84925862
  entropy T*S    EENTRO =        -0.00000000
  eigenvalues    EBANDS =      -107.43090246
  atomic energy  EATOM  =       457.33192828
  Solvation  Ediel_sol  =         0.00000000
  ---------------------------------------------------
  free energy    TOTEN  =       -14.19931948 eV

  energy without entropy =      -14.19931948  energy(sigma->0) =      -14.19931948


--------------------------------------------------------------------------------------------------------




--------------------------------------- Iteration      1(  15)  ---------------------------------------


    POTLOK:  cpu time      0.6030: real time      0.0980
    SETDIJ:  cpu time      0.0226: real time      0.0019
     EDDAV:  cpu time     22.0534: real time      2.7759
       DOS:  cpu time      0.0012: real time      0.0002
    --------------------------------------------
      LOOP:  cpu time     22.6802: real time      2.8760

 eigenvalue-minimisations  :    24
 total energy-change (2. order) :-0.1411350E-04  (-0.1365620E-06)
 number of electron       8.0000041 magnetization 
 augmentation part        0.7005907 magnetization 

 Free energy of the ion-electron system (eV)
  ---------------------------------------------------
  alpha Z        PSCENC =         0.87575161
  Ewald energy   TEWEN  =       -13.80331150
  -Hartree energ DENC   =      -383.21528976
  -exchange      EXHF   =         0.00000000
  -V(xc)+E(xc)   XCENC  =        34.17552496
  PAW double counting   =       556.65983413     -558.78302962
  entropy T*S    EENTRO =        -0.00000000
  eigenvalues    EBANDS =      -107.44074168
  atomic energy  EATOM  =       457.33192828
  Solvation  Ediel_sol  =         0.00000000
  ---------------------------------------------------
  free energy    TOTEN  =       -14.19933359 eV

  energy without entropy =      -14.19933359  energy(sigma->0) =      -14.19933359


--------------------------------------------------------------------------------------------------------




 average (electrostatic) potential at core
  the test charge radii are     0.7215  0.5201
  (the norm of the test charge is              1.0000)
       1 -80.1842       2 -44.5604       3 -44.5604



 E-fermi :  -6.3825     XC(G=0):  -1.7414     alpha+bet : -0.5081

 Fermi energy:        -6.3825232153

 k-point     1 :       0.0000    0.0000    0.0000
  band No.  band energies     occupation 
      1     -25.0967      2.00000
      2     -12.8906      2.00000
      3      -8.8891      2.00000
      4      -6.8439      2.00000
      5      -1.2156      0.00000
      6       2.1769      0.00000
      7       2.2253      0.00000
      8       2.5776      0.00000


--------------------------------------------------------------------------------------------------------


 soft charge-density along one line, spin component           1
         0         1         2         3         4         5         6         7         8         9
 total charge-density along one line

 pseudopotential strength for first ion, spin component:           1
 13.747 -16.849  -0.000  -0.000  -0.125   0.000   0.000   0.157
-16.849  20.681   0.000   0.000   0.159  -0.000  -0.000  -0.200
 -0.000   0.000 -10.507   0.000   0.000  13.012  -0.000  -0.000
 -0.000   0.000   0.000 -10.259  -0.000  -0.000  12.681   0.000
 -0.125   0.159   0.000  -0.000 -10.403  -0.000   0.000  12.874
  0.000  -0.000  13.012  -0.000  -0.000 -16.042   0.000   0.000
  0.000  -0.000  -0.000  12.681   0.000   0.000 -15.594  -0.000
  0.157  -0.200  -0.000   0.000  12.874   0.000  -0.000 -15.855
 total augmentation occupancy for first ion, spin component:           1
  2.785   0.470   0.000   0.000   0.443   0.000   0.000   0.176
  0.470   0.131   0.000   0.000   0.417   0.000   0.000   0.077
  0.000   0.000   2.455   0.000   0.000   0.479   0.000   0.000
  0.000   0.000   0.000   2.140   0.000   0.000   0.140   0.000
  0.443   0.417   0.000   0.000   2.327   0.000   0.000   0.337
  0.000   0.000   0.479   0.000   0.000   0.093   0.000   0.000
  0.000   0.000   0.000   0.140   0.000   0.000   0.009   0.000
  0.176   0.077   0.000   0.000   0.337   0.000   0.000   0.053


------------------------ aborting loop because EDIFF is reached ----------------------------------------


    CHARGE:  cpu time      0.6439: real time      0.0842
    FORLOC:  cpu time      0.0308: real time      0.0028
    FORNL :  cpu time      0.0245: real time      0.0042
    FORCOR:  cpu time      0.3272: real time      0.0512
    FORHAR:  cpu time      0.0901: real time      0.0258
    MIXING:  cpu time      0.0534: real time      0.0070
    OFIELD:  cpu time      0.0000: real time      0.0000

 VOLUME and BASIS-vectors are now :
 -----------------------------------------------------------------------------
  energy-cutoff  :      520.00
  volume of cell :      256.07
      direct lattice vectors                 reciprocal lattice vectors
     6.350160000  0.000000000  0.000000000     0.157476347  0.000000000  0.000000000
     0.000000000  6.350160000  0.000000000     0.000000000  0.157476347  0.000000000
     0.000000000  0.000000000  6.350160000     0.000000000  0.000000000  0.157476347

  length of vectors
     6.350160000  6.350160000  6.350160000     0.157476347  0.157476347  0.157476347


 FORCES acting on ions
    electron-ion (+dipol)            ewald-force                    non-local-force                 convergence-correction
 -----------------------------------------------------------------------------------------------
   0.635E+02 -.976E-15 -.116E-14   -.114E+03 -.142E-13 0.732E-16   0.494E+02 0.196E-25 0.648E-26   0.294E-02 0.229E-13 0.169E-13
   -.513E+02 0.720E+02 0.149E-06   0.570E+02 -.799E+02 0.105E-16   -.517E+01 0.720E+01 0.735E-25   0.517E-03 -.400E-03 0.751E-15
   -.513E+02 -.720E+02 -.102E-06   0.570E+02 0.799E+02 0.112E-16   -.517E+01 -.720E+01 0.705E-25   0.517E-03 0.400E-03 -.386E-15
 -----------------------------------------------------------------------------------------------
   -.391E+02 -.142E-13 0.468E-07   -.711E-14 0.000E+00 0.949E-16   0.391E+02 0.000E+00 0.150E-24   0.397E-02 0.247E-13 0.172E-13


 POSITION                                       TOTAL-FORCE (eV/Angst)
 -----------------------------------------------------------------------------------
      0.00000      0.00000      0.00000        -1.056998      0.000000      0.000000
      0.58210      5.59343      0.00000         0.528148     -0.696497     -0.000000
      0.58210      0.75673      0.00000         0.528148      0.696497      0.000000
 -----------------------------------------------------------------------------------
    total drift:                               -0.000702      0.000000      0.000000


--------------------------------------------------------------------------------------------------------



  FREE ENERGIE OF THE ION-ELECTRON SYSTEM (eV)
  ---------------------------------------------------
  free  energy   TOTEN  =       -14.19933359 eV

  energy  without entropy=      -14.19933359  energy(sigma->0) =      -14.19933359



--------------------------------------------------------------------------------------------------------


    POTLOK:  cpu time      0.3627: real time      0.0665


--------------------------------------------------------------------------------------------------------


           RANDOM_SEED =         560335329                0                0
           RANDOM_SEED =         560335329                0                0
   IONSTEP:  cpu time      0.0001: real time      0.0001

  ENERGY OF THE ELECTRON-ION-THERMOSTAT SYSTEM (eV)
  ---------------------------------------------------
% ion-electron   TOTEN  =       -14.199334  see above
  kinetic energy EKIN   =         0.000000
  kin. lattice  EKIN_LAT=         0.000000  (temperature    0.00 K)
  nose potential ES     =         0.000000
  nose kinetic   EPS    =         0.000000
  ---------------------------------------------------
  total energy   ETOTAL =       -14.199333 eV

  maximum distance moved by ions :      0.31E-06

    WAVPRE:  cpu time      0.4015: real time      0.3309
    FEWALD:  cpu time      0.0211: real time      0.0013
    ORTHCH:  cpu time      0.3496: real time      0.0436
     LOOP+:  cpu time    303.2748: real time     38.7740


--------------------------------------- Ionic step        2  -------------------------------------------




--------------------------------------- Iteration      2(   1)  ---------------------------------------


    POTLOK:  cpu time      0.9448: real time      0.1407
    SETDIJ:  cpu time      0.0016: real time      0.0016
     EDDAV:  cpu time     14.0293: real time      1.7721
       DOS:  cpu time      0.0006: real time      0.0001
    CHARGE:  cpu time      0.6419: real time      0.0833
    MIXING:  cpu time      0.0257: real time      0.0044
    --------------------------------------------
      LOOP:  cpu time     15.6441: real time      2.0023

 eigenvalue-minimisations  :    16
 total energy-change (2. order) :-0.2251844E-04  (-0.1049520E-06)
 number of electron       8.0000041 magnetization 
 augmentation part        0.7005849 magnetization 

 Broyden mixing:
  rms(total) = 0.25538E-04    rms(broyden)= 0.25443E-04
  rms(prec ) = 0.57678E-04
  weight for this iteration     100.00

 Free energy of the ion-electron system (eV)
  ---------------------------------------------------
  alpha Z        PSCENC =         0.87575161
  Ewald energy   TEWEN  =       -13.80369843
  -Hartree energ DENC   =      -383.21828707
  -exchange      EXHF   =         0.00000000
  -V(xc)+E(xc)   XCENC  =        34.17573395
  PAW double counting   =       556.63927115     -558.76250292
  entropy T*S    EENTRO =        -0.00000000
  eigenvalues    EBANDS =      -107.43753856
  atomic energy  EATOM  =       457.33192828
  Solvation  Ediel_sol  =         0.00000000
  ---------------------------------------------------
  free energy    TOTEN  =       -14.19934199 eV

  energy without entropy =      -14.19934199  energy(sigma->0) =      -14.19934199


--------------------------------------------------------------------------------------------------------




--------------------------------------- Iteration      2(   2)  ---------------------------------------


    POTLOK:  cpu time      0.3789: real time      0.0695
    SETDIJ:  cpu time      0.0014: real time      0.0014
     EDDAV:  cpu time     16.2843: real time      2.0472
       DOS:  cpu time      0.0014: real time      0.0003
    --------------------------------------------
      LOOP:  cpu time     16.6660: real time      2.1184

 eigenvalue-minimisations  :    16
 total energy-change (2. order) :-0.6544810E-06  (-0.3877631E-08)
 number of electron       8.0000041 magnetization 
 augmentation part        0.7005849 magnetization 

 Free energy of the ion-electron system (eV)
  ---------------------------------------------------
  alpha Z        PSCENC =         0.87575161
  Ewald energy   TEWEN  =       -13.80369843
  -Hartree energ DENC   =      -383.21749958
  -exchange      EXHF   =         0.00000000
  -V(xc)+E(xc)   XCENC  =        34.17569361
  PAW double counting   =       556.64055548     -558.76377847
  entropy T*S    EENTRO =        -0.00000000
  eigenvalues    EBANDS =      -107.43829514
  atomic energy  EATOM  =       457.33192828
  Solvation  Ediel_sol  =         0.00000000
  ---------------------------------------------------
  free energy    TOTEN  =       -14.19934265 eV

  energy without entropy =      -14.19934265  energy(sigma->0) =      -14.19934265


--------------------------------------------------------------------------------------------------------




 average (electrostatic) potential at core
  the test charge radii are     0.7215  0.5201
  (the norm of the test charge is              1.0000)
       1 -80.1835       2 -44.5605       3 -44.5605



 E-fermi :  -6.2939     XC(G=0):  -1.7491     alpha+bet : -0.5081

 Fermi energy:        -6.2939407702

 k-point     1 :       0.0000    0.0000    0.0000
  band No.  band energies     occupation 
      1     -25.0964      2.00000
      2     -12.8904      2.00000
      3      -8.8888      2.00000
      4      -6.8435      2.00000
      5      -1.2201      0.00000
      6       2.1629      0.00000
      7       2.2223      0.00000
      8       2.5632      0.00000


--------------------------------------------------------------------------------------------------------


 soft charge-density along one line, spin component           1
         0         1         2         3         4         5         6         7         8         9
 total charge-density along one line

 pseudopotential strength for first ion, spin component:           1
 13.747 -16.849  -0.000   0.000  -0.125   0.000  -0.000   0.157
-16.849  20.681   0.000  -0.000   0.159  -0.000   0.000  -0.200
 -0.000   0.000 -10.506  -0.000   0.000  13.012   0.000  -0.000
  0.000  -0.000  -0.000 -10.259  -0.000   0.000  12.681   0.000
 -0.125   0.159   0.000  -0.000 -10.403  -0.000   0.000  12.873
  0.000  -0.000  13.012   0.000  -0.000 -16.042  -0.000   0.000
 -0.000   0.000   0.000  12.681   0.000  -0.000 -15.594  -0.000
  0.157  -0.200  -0.000   0.000  12.873   0.000  -0.000 -15.855
 total augmentation occupancy for first ion, spin component:           1
  2.785   0.470   0.000   0.000   0.443   0.000   0.000   0.176
  0.470   0.131   0.000   0.000   0.417   0.000   0.000   0.077
  0.000   0.000   2.455   0.000   0.000   0.479   0.000   0.000
  0.000   0.000   0.000   2.140   0.000   0.000   0.140   0.000
  0.443   0.417   0.000   0.000   2.327   0.000   0.000   0.337
  0.000   0.000   0.479   0.000   0.000   0.093   0.000   0.000
  0.000   0.000   0.000   0.140   0.000   0.000   0.009   0.000
  0.176   0.077   0.000   0.000   0.337   0.000   0.000   0.053


------------------------ aborting loop because EDIFF is reached ----------------------------------------


    CHARGE:  cpu time      0.6445: real time      0.0831
    FORLOC:  cpu time      0.0308: real time      0.0028
    FORNL :  cpu time      0.0213: real time      0.0042
    FORCOR:  cpu time      0.3026: real time      0.0511
    FORHAR:  cpu time      0.1225: real time      0.0254
    MIXING:  cpu time      0.0228: real time      0.0049
    OFIELD:  cpu time      0.0000: real time      0.0000

 VOLUME and BASIS-vectors are now :
 -----------------------------------------------------------------------------
  energy-cutoff  :      520.00
  volume of cell :      256.07
      direct lattice vectors                 reciprocal lattice vectors
     6.350160000  0.000000000  0.000000000     0.157476347  0.000000000  0.000000000
     0.000000000  6.350160000  0.000000000     0.000000000  0.157476347  0.000000000
     0.000000000  0.000000000  6.350160000     0.000000000  0.000000000  0.157476347

  length of vectors
     6.350160000  6.350160000  6.350160000     0.157476347  0.157476347  0.157476347


 FORCES acting on ions
    electron-ion (+dipol)            ewald-force                    non-local-force                 convergence-correction
 -----------------------------------------------------------------------------------------------
   0.635E+02 0.301E-06 -.860E-15   -.114E+03 -.148E-04 0.107E-15   0.494E+02 -.140E-22 0.478E-24   0.905E-04 0.448E-05 -.983E-13
   -.513E+02 0.720E+02 0.149E-06   0.570E+02 -.799E+02 -.860E-17   -.517E+01 0.720E+01 -.904E-25   -.491E-04 0.748E-04 -.107E-13
   -.513E+02 -.720E+02 -.102E-06   0.570E+02 0.799E+02 -.319E-17   -.517E+01 -.720E+01 0.110E-24   -.494E-04 -.745E-04 -.106E-13
 -----------------------------------------------------------------------------------------------
   -.391E+02 -.228E-04 0.468E-07   0.000E+00 0.000E+00 0.949E-16   0.391E+02 0.000E+00 0.498E-24   -.803E-05 0.473E-05 -.120E-12


 POSITION                                       TOTAL-FORCE (eV/Angst)
 -----------------------------------------------------------------------------------
      0.00000      0.00000      0.00000        -1.057519     -0.000000     -0.000000
      0.58210      5.59343      0.00000         0.528552     -0.696939      0.000000
      0.58210      0.75673      0.00000         0.528552      0.696939     -0.000000
 -----------------------------------------------------------------------------------
    total drift:                               -0.000415     -0.000018      0.000000


--------------------------------------------------------------------------------------------------------



  FREE ENERGIE OF THE ION-ELECTRON SYSTEM (eV)
  ---------------------------------------------------
  free  energy   TOTEN  =       -14.19934265 eV

  energy  without entropy=      -14.19934265  energy(sigma->0) =      -14.19934265

 d Force = 0.3442798E-05[ 0.344E-05, 0.344E-05]  d Energy = 0.9059417E-05-0.562E-05
 d Force = 0.3869311E-03[ 0.387E-03, 0.387E-03]  d Ewald  = 0.3869311E-03-0.674E-12


--------------------------------------------------------------------------------------------------------


    POTLOK:  cpu time      0.3709: real time      0.0678


--------------------------------------------------------------------------------------------------------


           RANDOM_SEED =         560335329                0                0
   IONSTEP:  cpu time      0.0001: real time      0.0001

  ENERGY OF THE ELECTRON-ION-THERMOSTAT SYSTEM (eV)
  ---------------------------------------------------
% ion-electron   TOTEN  =       -14.199343  see above
  kinetic energy EKIN   =         0.000004
  kin. lattice  EKIN_LAT=         0.000000  (temperature    0.02 K)
  nose potential ES     =         0.000000
  nose kinetic   EPS    =         0.000000
  ---------------------------------------------------
  total energy   ETOTAL =       -14.199339 eV

  maximum distance moved by ions :      0.61E-06

 Prediction of Wavefunctions ALPHA= 1.957 BETA= 0.000
    WAVPRE:  cpu time      0.3830: real time      0.0808
    FEWALD:  cpu time      0.0010: real time      0.0010
    ORTHCH:  cpu time      0.2787: real time      0.0326
     LOOP+:  cpu time     34.4973: real time      4.4760


--------------------------------------- Ionic step        3  -------------------------------------------




--------------------------------------- Iteration      3(   1)  ---------------------------------------


    POTLOK:  cpu time      0.9718: real time      0.1459
    SETDIJ:  cpu time      0.0015: real time      0.0015
     EDDAV:  cpu time     15.0388: real time      1.9027
       DOS:  cpu time      0.0005: real time      0.0001
    CHARGE:  cpu time      0.6297: real time      0.0879
    MIXING:  cpu time      0.0288: real time      0.0044
    --------------------------------------------
      LOOP:  cpu time     16.6712: real time      2.1425

 eigenvalue-minimisations  :    16
 total energy-change (2. order) :-0.8277545E-05  (-0.1061281E-06)
 number of electron       8.0000041 magnetization 
 augmentation part        0.7005982 magnetization 

 Broyden mixing:
  rms(total) = 0.67392E-04    rms(broyden)= 0.67217E-04
  rms(prec ) = 0.11013E-03
  weight for this iteration     100.00

 Free energy of the ion-electron system (eV)
  ---------------------------------------------------
  alpha Z        PSCENC =         0.87575161
  Ewald energy   TEWEN  =       -13.80445804
  -Hartree energ DENC   =      -383.21321850
  -exchange      EXHF   =         0.00000000
  -V(xc)+E(xc)   XCENC  =        34.17548128
  PAW double counting   =       556.65083302     -558.77404334
  entropy T*S    EENTRO =        -0.00000000
  eigenvalues    EBANDS =      -107.44162459
  atomic energy  EATOM  =       457.33192828
  Solvation  Ediel_sol  =         0.00000000
  ---------------------------------------------------
  free energy    TOTEN  =       -14.19935027 eV

  energy without entropy =      -14.19935027  energy(sigma->0) =      -14.19935027


--------------------------------------------------------------------------------------------------------




--------------------------------------- Iteration      3(   2)  ---------------------------------------


    POTLOK:  cpu time      0.3640: real time      0.0680
    SETDIJ:  cpu time      0.0218: real time      0.0016
     EDDAV:  cpu time     14.6294: real time      1.8495
       DOS:  cpu time      0.0010: real time      0.0001
    --------------------------------------------
      LOOP:  cpu time     15.0162: real time      1.9192

 eigenvalue-minimisations  :    16
 total energy-change (2. order) :-0.1871014E-06  (-0.6871140E-08)
 number of electron       8.0000041 magnetization 
 augmentation part        0.7005982 magnetization 

 Free energy of the ion-electron system (eV)
  ---------------------------------------------------
  alpha Z        PSCENC =         0.87575161
  Ewald energy   TEWEN  =       -13.80445804
  -Hartree energ DENC   =      -383.21501216
  -exchange      EXHF   =         0.00000000
  -V(xc)+E(xc)   XCENC  =        34.17558052
  PAW double counting   =       556.64962513     -558.77286170
  entropy T*S    EENTRO =        -0.00000000
  eigenvalues    EBANDS =      -107.43990410
  atomic energy  EATOM  =       457.33192828
  Solvation  Ediel_sol  =         0.00000000
  ---------------------------------------------------
  free energy    TOTEN  =       -14.19935046 eV

  energy without entropy =      -14.19935046  energy(sigma->0) =      -14.19935046


--------------------------------------------------------------------------------------------------------




 average (electrostatic) potential at core
  the test charge radii are     0.7215  0.5201
  (the norm of the test charge is              1.0000)
       1 -80.1838       2 -44.5606       3 -44.5606



 E-fermi :  -6.2993     XC(G=0):  -1.7703     alpha+bet : -0.5081

 Fermi energy:        -6.2992992526

 k-point     1 :       0.0000    0.0000    0.0000
  band No.  band energies     occupation 
      1     -25.0966      2.00000
      2     -12.8906      2.00000
      3      -8.8890      2.00000
      4      -6.8438      2.00000
      5      -1.2284      0.00000
      6       2.1344      0.00000
      7       2.2181      0.00000
      8       2.5554      0.00000


--------------------------------------------------------------------------------------------------------


 soft charge-density along one line, spin component           1
         0         1         2         3         4         5         6         7         8         9
 total charge-density along one line

 pseudopotential strength for first ion, spin component:           1
 13.747 -16.849  -0.000   0.000  -0.125   0.000  -0.000   0.157
-16.849  20.681   0.000  -0.000   0.159  -0.000   0.000  -0.200
 -0.000   0.000 -10.506  -0.000   0.000  13.012   0.000  -0.000
  0.000  -0.000  -0.000 -10.259   0.000   0.000  12.681  -0.000
 -0.125   0.159   0.000   0.000 -10.403  -0.000  -0.000  12.874
  0.000  -0.000  13.012   0.000  -0.000 -16.042  -0.000   0.000
 -0.000   0.000   0.000  12.681  -0.000  -0.000 -15.594   0.000
  0.157  -0.200  -0.000  -0.000  12.874   0.000   0.000 -15.855
 total augmentation occupancy for first ion, spin component:           1
  2.785   0.470   0.000   0.000   0.443   0.000   0.000   0.176
  0.470   0.131   0.000   0.000   0.417   0.000   0.000   0.077
  0.000   0.000   2.455   0.000   0.000   0.479   0.000   0.000
  0.000   0.000   0.000   2.140   0.000   0.000   0.140   0.000
  0.443   0.417   0.000   0.000   2.327   0.000   0.000   0.337
  0.000   0.000   0.479   0.000   0.000   0.093   0.000   0.000
  0.000   0.000   0.000   0.140   0.000   0.000   0.009   0.000
  0.176   0.077   0.000   0.000   0.337   0.000   0.000   0.053


------------------------ aborting loop because EDIFF is reached ----------------------------------------


    CHARGE:  cpu time      0.6374: real time      0.0818
    FORLOC:  cpu time      0.0308: real time      0.0028
    FORNL :  cpu time      0.0213: real time      0.0042
    FORCOR:  cpu time      0.3026: real time      0.0495
    FORHAR:  cpu time      0.0938: real time      0.0252
    MIXING:  cpu time      0.0371: real time      0.0048
    OFIELD:  cpu time      0.0000: real time      0.0000

 VOLUME and BASIS-vectors are now :
 -----------------------------------------------------------------------------
  energy-cutoff  :      520.00
  volume of cell :      256.07
      direct lattice vectors                 reciprocal lattice vectors
     6.350160000  0.000000000  0.000000000     0.157476347  0.000000000  0.000000000
     0.000000000  6.350160000  0.000000000     0.000000000  0.157476347  0.000000000
     0.000000000  0.000000000  6.350160000     0.000000000  0.000000000  0.157476347

  length of vectors
     6.350160000  6.350160000  6.350160000     0.157476347  0.157476347  0.157476347


 FORCES acting on ions
    electron-ion (+dipol)            ewald-force                    non-local-force                 convergence-correction
 -----------------------------------------------------------------------------------------------
   0.635E+02 0.601E-06 -.919E-15   -.114E+03 -.295E-04 0.104E-15   0.494E+02 0.114E-21 0.297E-26   0.863E-04 -.164E-06 0.202E-12
   -.513E+02 0.720E+02 0.149E-06   0.570E+02 -.799E+02 -.221E-17   -.517E+01 0.720E+01 0.798E-26   0.400E-04 -.477E-04 0.203E-13
   -.513E+02 -.720E+02 -.102E-06   0.570E+02 0.799E+02 -.678E-17   -.517E+01 -.720E+01 -.113E-25   0.401E-04 0.477E-04 0.117E-13
 -----------------------------------------------------------------------------------------------
   -.391E+02 -.456E-04 0.468E-07   0.711E-14 0.000E+00 0.949E-16   0.391E+02 -.888E-15 -.342E-27   0.166E-03 -.178E-06 0.234E-12


 POSITION                                       TOTAL-FORCE (eV/Angst)
 -----------------------------------------------------------------------------------
      0.00000      0.00000      0.00000        -1.057174      0.000000     -0.000000
      0.58210      5.59343      0.00000         0.528410     -0.696739     -0.000000
      0.58210      0.75673      0.00000         0.528410      0.696739     -0.000000
 -----------------------------------------------------------------------------------
    total drift:                               -0.000354     -0.000046      0.000000


--------------------------------------------------------------------------------------------------------



  FREE ENERGIE OF THE ION-ELECTRON SYSTEM (eV)
  ---------------------------------------------------
  free  energy   TOTEN  =       -14.19935046 eV

  energy  without entropy=      -14.19935046  energy(sigma->0) =      -14.19935046

 d Force = 0.6764920E-05[ 0.676E-05, 0.677E-05]  d Energy = 0.7810166E-05-0.105E-05
 d Force = 0.7596033E-03[ 0.760E-03, 0.760E-03]  d Ewald  = 0.7596033E-03 0.201E-11


--------------------------------------------------------------------------------------------------------


    POTLOK:  cpu time      0.3556: real time      0.0654


--------------------------------------------------------------------------------------------------------


           RANDOM_SEED =         560335329                0                0
   IONSTEP:  cpu time      0.0001: real time      0.0001

  ENERGY OF THE ELECTRON-ION-THERMOSTAT SYSTEM (eV)
  ---------------------------------------------------
% ion-electron   TOTEN  =       -14.199350  see above
  kinetic energy EKIN   =         0.000011
  kin. lattice  EKIN_LAT=         0.000000  (temperature    0.06 K)
  nose potential ES     =         0.000000
  nose kinetic   EPS    =         0.000000
  ---------------------------------------------------
  total energy   ETOTAL =       -14.199340 eV

  maximum distance moved by ions :      0.91E-06

 Prediction of Wavefunctions ALPHA= 2.000 BETA=-1.000
    WAVPRE:  cpu time      0.4165: real time      0.0798
    FEWALD:  cpu time      0.0010: real time      0.0010
    ORTHCH:  cpu time      0.2448: real time      0.0293
     LOOP+:  cpu time     33.8396: real time      4.4074


--------------------------------------- Ionic step        4  -------------------------------------------




--------------------------------------- Iteration      4(   1)  ---------------------------------------


    POTLOK:  cpu time      1.0134: real time      0.1540
    SETDIJ:  cpu time      0.0017: real time      0.0017
     EDDAV:  cpu time     14.7422: real time      1.8529
       DOS:  cpu time      0.0008: real time      0.0001
    CHARGE:  cpu time      0.6579: real time      0.0859
    MIXING:  cpu time      0.0272: real time      0.0043
    --------------------------------------------
      LOOP:  cpu time     16.4432: real time      2.0990

 eigenvalue-minimisations  :    16
 total energy-change (2. order) :-0.8463180E-05  (-0.1301943E-06)
 number of electron       8.0000041 magnetization 
 augmentation part        0.7005779 magnetization 

 Broyden mixing:
  rms(total) = 0.61091E-04    rms(broyden)= 0.61014E-04
  rms(prec ) = 0.10578E-03
  weight for this iteration     100.00

 Free energy of the ion-electron system (eV)
  ---------------------------------------------------
  alpha Z        PSCENC =         0.87575161
  Ewald energy   TEWEN  =       -13.80559020
  -Hartree energ DENC   =      -383.21429190
  -exchange      EXHF   =         0.00000000
  -V(xc)+E(xc)   XCENC  =        34.17556995
  PAW double counting   =       556.65038664     -558.77364079
  entropy T*S    EENTRO =        -0.00000000
  eigenvalues    EBANDS =      -107.43947232
  atomic energy  EATOM  =       457.33192828
  Solvation  Ediel_sol  =         0.00000000
  ---------------------------------------------------
  free energy    TOTEN  =       -14.19935873 eV

  energy without entropy =      -14.19935873  energy(sigma->0) =      -14.19935873


--------------------------------------------------------------------------------------------------------




--------------------------------------- Iteration      4(   2)  ---------------------------------------


    POTLOK:  cpu time      0.3318: real time      0.0634
[...]
  rms(prec ) = 0.44335E-04
  weight for this iteration     100.00

 Free energy of the ion-electron system (eV)
  ---------------------------------------------------
  alpha Z        PSCENC =         0.87575161
  Ewald energy   TEWEN  =       -13.81683247
  -Hartree energ DENC   =      -383.20501957
  -exchange      EXHF   =         0.00000000
  -V(xc)+E(xc)   XCENC  =        34.17507087
  PAW double counting   =       556.60062041     -558.72374723
  entropy T*S    EENTRO =        -0.00000000
  eigenvalues    EBANDS =      -107.43723208
  atomic energy  EATOM  =       457.33192828
  Solvation  Ediel_sol  =         0.00000000
  ---------------------------------------------------
  free energy    TOTEN  =       -14.19946019 eV

  energy without entropy =      -14.19946019  energy(sigma->0) =      -14.19946019


--------------------------------------------------------------------------------------------------------




--------------------------------------- Iteration      9(   2)  ---------------------------------------


    POTLOK:  cpu time      0.3318: real time      0.0634
    SETDIJ:  cpu time      0.0014: real time      0.0014
     EDDAV:  cpu time     21.0253: real time      2.6436
       DOS:  cpu time      0.0010: real time      0.0001
    --------------------------------------------
      LOOP:  cpu time     21.3596: real time      2.7086

 eigenvalue-minimisations  :    24
 total energy-change (2. order) :-0.2129084E-06  (-0.3035968E-08)
 number of electron       8.0000041 magnetization 
 augmentation part        0.7005613 magnetization 

 Free energy of the ion-electron system (eV)
  ---------------------------------------------------
  alpha Z        PSCENC =         0.87575161
  Ewald energy   TEWEN  =       -13.81683247
  -Hartree energ DENC   =      -383.20561489
  -exchange      EXHF   =         0.00000000
  -V(xc)+E(xc)   XCENC  =        34.17510053
  PAW double counting   =       556.60127863     -558.72441835
  entropy T*S    EENTRO =        -0.00000000
  eigenvalues    EBANDS =      -107.43665373
  atomic energy  EATOM  =       457.33192828
  Solvation  Ediel_sol  =         0.00000000
  ---------------------------------------------------
  free energy    TOTEN  =       -14.19946040 eV

  energy without entropy =      -14.19946040  energy(sigma->0) =      -14.19946040


--------------------------------------------------------------------------------------------------------




 average (electrostatic) potential at core
  the test charge radii are     0.7215  0.5201
  (the norm of the test charge is              1.0000)
       1 -80.1837       2 -44.5597       3 -44.5597



 E-fermi :  -6.2991     XC(G=0):  -1.7713     alpha+bet : -0.5081

 Fermi energy:        -6.2991114171

 k-point     1 :       0.0000    0.0000    0.0000
  band No.  band energies     occupation 
      1     -25.0959      2.00000
      2     -12.8900      2.00000
      3      -8.8889      2.00000
      4      -6.8436      2.00000
      5      -1.2289      0.00000
      6       2.1326      0.00000
      7       2.2176      0.00000
      8       2.5553      0.00000


--------------------------------------------------------------------------------------------------------


 soft charge-density along one line, spin component           1
         0         1         2         3         4         5         6         7         8         9
 total charge-density along one line

 pseudopotential strength for first ion, spin component:           1
 13.747 -16.849  -0.000   0.000  -0.125   0.000  -0.000   0.157
-16.849  20.681   0.000  -0.000   0.159  -0.000   0.000  -0.200
 -0.000   0.000 -10.506   0.000   0.000  13.012  -0.000  -0.000
  0.000  -0.000   0.000 -10.259  -0.000  -0.000  12.681   0.000
 -0.125   0.159   0.000  -0.000 -10.403  -0.000   0.000  12.874
  0.000  -0.000  13.012  -0.000  -0.000 -16.042   0.000   0.000
 -0.000   0.000  -0.000  12.681   0.000   0.000 -15.594  -0.000
  0.157  -0.200  -0.000   0.000  12.874   0.000  -0.000 -15.855
 total augmentation occupancy for first ion, spin component:           1
  2.785   0.470   0.000   0.000   0.443   0.000   0.000   0.176
  0.470   0.131   0.000   0.000   0.417   0.000   0.000   0.077
  0.000   0.000   2.455   0.000   0.000   0.479   0.000   0.000
  0.000   0.000   0.000   2.140   0.000   0.000   0.140   0.000
  0.443   0.417   0.000   0.000   2.327   0.000   0.000   0.337
  0.000   0.000   0.479   0.000   0.000   0.093   0.000   0.000
  0.000   0.000   0.000   0.140   0.000   0.000   0.009   0.000
  0.176   0.077   0.000   0.000   0.337   0.000   0.000   0.053


------------------------ aborting loop because EDIFF is reached ----------------------------------------


    CHARGE:  cpu time      0.6294: real time      0.0817
    FORLOC:  cpu time      0.0308: real time      0.0028
    FORNL :  cpu time      0.0225: real time      0.0042
    FORCOR:  cpu time      0.3297: real time      0.0512
    FORHAR:  cpu time      0.0898: real time      0.0258
    MIXING:  cpu time      0.0322: real time      0.0048
    OFIELD:  cpu time      0.0000: real time      0.0000

 VOLUME and BASIS-vectors are now :
 -----------------------------------------------------------------------------
  energy-cutoff  :      520.00
  volume of cell :      256.07
      direct lattice vectors                 reciprocal lattice vectors
     6.350160000  0.000000000  0.000000000     0.157476347  0.000000000  0.000000000
     0.000000000  6.350160000  0.000000000     0.000000000  0.157476347  0.000000000
     0.000000000  0.000000000  6.350160000     0.000000000  0.000000000  0.157476347

  length of vectors
     6.350160000  6.350160000  6.350160000     0.157476347  0.157476347  0.157476347


 FORCES acting on ions
    electron-ion (+dipol)            ewald-force                    non-local-force                 convergence-correction
 -----------------------------------------------------------------------------------------------
   0.635E+02 0.240E-05 -.102E-14   -.114E+03 -.118E-03 0.710E-16   0.494E+02 0.131E-20 0.219E-24   -.594E-04 -.635E-06 0.173E-12
   -.513E+02 0.720E+02 0.149E-06   0.570E+02 -.799E+02 0.992E-17   -.517E+01 0.719E+01 0.265E-25   0.123E-04 -.261E-04 0.755E-14
   -.513E+02 -.720E+02 -.103E-06   0.570E+02 0.799E+02 0.139E-16   -.517E+01 -.719E+01 0.248E-25   0.124E-04 0.262E-04 0.148E-13
 -----------------------------------------------------------------------------------------------
   -.391E+02 -.182E-03 0.461E-07   0.000E+00 0.000E+00 0.949E-16   0.391E+02 0.000E+00 0.270E-24   -.347E-04 -.561E-06 0.195E-12


 POSITION                                       TOTAL-FORCE (eV/Angst)
 -----------------------------------------------------------------------------------
      0.00000      0.00000      0.00000        -1.053273      0.000000     -0.000000
      0.58214      5.59338      0.00000         0.526461     -0.693808      0.000000
      0.58214      0.75678      0.00000         0.526461      0.693808     -0.000000
 -----------------------------------------------------------------------------------
    total drift:                               -0.000351     -0.000183      0.000000


--------------------------------------------------------------------------------------------------------



  FREE ENERGIE OF THE ION-ELECTRON SYSTEM (eV)
  ---------------------------------------------------
  free  energy   TOTEN  =       -14.19946040 eV

  energy  without entropy=      -14.19946040  energy(sigma->0) =      -14.19946040

 d Force = 0.2656414E-04[ 0.266E-04, 0.266E-04]  d Energy = 0.2635586E-04 0.208E-06
 d Force = 0.2991723E-02[ 0.299E-02, 0.299E-02]  d Ewald  = 0.2991723E-02 0.131E-11


--------------------------------------------------------------------------------------------------------


    POTLOK:  cpu time      0.3589: real time      0.0664


--------------------------------------------------------------------------------------------------------


           RANDOM_SEED =         560335329                0                0
   IONSTEP:  cpu time      0.0001: real time      0.0001

  ENERGY OF THE ELECTRON-ION-THERMOSTAT SYSTEM (eV)
  ---------------------------------------------------
% ion-electron   TOTEN  =       -14.199460  see above
  kinetic energy EKIN   =         0.000121
  kin. lattice  EKIN_LAT=         0.000000  (temperature    0.70 K)
  nose potential ES     =         0.000000
  nose kinetic   EPS    =         0.000000
  ---------------------------------------------------
  total energy   ETOTAL =       -14.199340 eV

  maximum distance moved by ions :      0.27E-05

 Prediction of Wavefunctions ALPHA= 2.001 BETA=-1.002
    WAVPRE:  cpu time      0.4674: real time      0.0798
    FEWALD:  cpu time      0.0011: real time      0.0011
    ORTHCH:  cpu time      0.3368: real time      0.0416
     LOOP+:  cpu time     39.3468: real time      5.0919


--------------------------------------- Ionic step       10  -------------------------------------------




--------------------------------------- Iteration     10(   1)  ---------------------------------------


    POTLOK:  cpu time      0.9365: real time      0.1398
    SETDIJ:  cpu time      0.0017: real time      0.0017
     EDDAV:  cpu time     14.3613: real time      1.8102
       DOS:  cpu time      0.0005: real time      0.0001
    CHARGE:  cpu time      0.6350: real time      0.0834
    MIXING:  cpu time      0.0332: real time      0.0044
    --------------------------------------------
      LOOP:  cpu time     15.9683: real time      2.0396

 eigenvalue-minimisations  :    16
 total energy-change (2. order) :-0.2894911E-04  (-0.8940495E-08)
 number of electron       8.0000041 magnetization 
 augmentation part        0.7005491 magnetization 

 Broyden mixing:
  rms(total) = 0.15934E-04    rms(broyden)= 0.15918E-04
  rms(prec ) = 0.56533E-04
  weight for this iteration     100.00

 Free energy of the ion-electron system (eV)
  ---------------------------------------------------
  alpha Z        PSCENC =         0.87575161
  Ewald energy   TEWEN  =       -13.82019510
  -Hartree energ DENC   =      -383.20221043
  -exchange      EXHF   =         0.00000000
  -V(xc)+E(xc)   XCENC  =        34.17494228
  PAW double counting   =       556.59031701     -558.71344503
  entropy T*S    EENTRO =        -0.00000000
  eigenvalues    EBANDS =      -107.43657775
  atomic energy  EATOM  =       457.33192828
  Solvation  Ediel_sol  =         0.00000000
  ---------------------------------------------------
  free energy    TOTEN  =       -14.19948913 eV

  energy without entropy =      -14.19948913  energy(sigma->0) =      -14.19948913


--------------------------------------------------------------------------------------------------------




--------------------------------------- Iteration     10(   2)  ---------------------------------------


    POTLOK:  cpu time      0.3634: real time      0.0679
    SETDIJ:  cpu time      0.0155: real time      0.0016
     EDDAV:  cpu time     21.1402: real time      2.6636
       DOS:  cpu time      0.0032: real time      0.0005
    --------------------------------------------
      LOOP:  cpu time     21.5223: real time      2.7336

 eigenvalue-minimisations  :    24
 total energy-change (2. order) :-0.4410046E-06  (-0.5983960E-09)
 number of electron       8.0000041 magnetization 
 augmentation part        0.7005491 magnetization 

 Free energy of the ion-electron system (eV)
  ---------------------------------------------------
  alpha Z        PSCENC =         0.87575161
  Ewald energy   TEWEN  =       -13.82019510
  -Hartree energ DENC   =      -383.20240586
  -exchange      EXHF   =         0.00000000
  -V(xc)+E(xc)   XCENC  =        34.17494636
  PAW double counting   =       556.59007094     -558.71319346
  entropy T*S    EENTRO =        -0.00000000
  eigenvalues    EBANDS =      -107.43639235
  atomic energy  EATOM  =       457.33192828
  Solvation  Ediel_sol  =         0.00000000
  ---------------------------------------------------
  free energy    TOTEN  =       -14.19948958 eV

  energy without entropy =      -14.19948958  energy(sigma->0) =      -14.19948958


--------------------------------------------------------------------------------------------------------




 average (electrostatic) potential at core
  the test charge radii are     0.7215  0.5201
  (the norm of the test charge is              1.0000)
       1 -80.1837       2 -44.5595       3 -44.5595



 E-fermi :  -6.2999     XC(G=0):  -1.7748     alpha+bet : -0.5081

 Fermi energy:        -6.2999411577

 k-point     1 :       0.0000    0.0000    0.0000
  band No.  band energies     occupation 
      1     -25.0957      2.00000
      2     -12.8899      2.00000
      3      -8.8889      2.00000
      4      -6.8436      2.00000
      5      -1.2303      0.00000
      6       2.1264      0.00000
      7       2.2164      0.00000
      8       2.5540      0.00000


--------------------------------------------------------------------------------------------------------


 soft charge-density along one line, spin component           1
         0         1         2         3         4         5         6         7         8         9
 total charge-density along one line

 pseudopotential strength for first ion, spin component:           1
 13.747 -16.849  -0.000  -0.000  -0.125   0.000   0.000   0.157
-16.849  20.681   0.000   0.000   0.159  -0.000  -0.000  -0.200
 -0.000   0.000 -10.506  -0.000   0.000  13.012   0.000  -0.000
 -0.000   0.000  -0.000 -10.259  -0.000   0.000  12.681   0.000
 -0.125   0.159   0.000  -0.000 -10.403  -0.000   0.000  12.874
  0.000  -0.000  13.012   0.000  -0.000 -16.042  -0.000   0.000
  0.000  -0.000   0.000  12.681   0.000  -0.000 -15.594  -0.000
  0.157  -0.200  -0.000   0.000  12.874   0.000  -0.000 -15.855
 total augmentation occupancy for first ion, spin component:           1
  2.785   0.470   0.000   0.000   0.443   0.000   0.000   0.176
  0.470   0.131   0.000   0.000   0.417   0.000   0.000   0.077
  0.000   0.000   2.455   0.000   0.000   0.479   0.000   0.000
  0.000   0.000   0.000   2.140   0.000   0.000   0.140   0.000
  0.443   0.417   0.000   0.000   2.327   0.000   0.000   0.337
  0.000   0.000   0.479   0.000   0.000   0.093   0.000   0.000
  0.000   0.000   0.000   0.140   0.000   0.000   0.009   0.000
  0.176   0.077   0.000   0.000   0.337   0.000   0.000   0.053


------------------------ aborting loop because EDIFF is reached ----------------------------------------


    CHARGE:  cpu time      0.6247: real time      0.0801
    FORLOC:  cpu time      0.0028: real time      0.0028
    FORNL :  cpu time      0.0374: real time      0.0042
    FORCOR:  cpu time      0.3146: real time      0.0495
    FORHAR:  cpu time      0.0937: real time      0.0251
    MIXING:  cpu time      0.0304: real time      0.0048
    OFIELD:  cpu time      0.0000: real time      0.0000

 VOLUME and BASIS-vectors are now :
 -----------------------------------------------------------------------------
  energy-cutoff  :      520.00
  volume of cell :      256.07
      direct lattice vectors                 reciprocal lattice vectors
     6.350160000  0.000000000  0.000000000     0.157476347  0.000000000  0.000000000
     0.000000000  6.350160000  0.000000000     0.000000000  0.157476347  0.000000000
     0.000000000  0.000000000  6.350160000     0.000000000  0.000000000  0.157476347

  length of vectors
     6.350160000  6.350160000  6.350160000     0.157476347  0.157476347  0.157476347


 FORCES acting on ions
    electron-ion (+dipol)            ewald-force                    non-local-force                 convergence-correction
 -----------------------------------------------------------------------------------------------
   0.635E+02 0.270E-05 -.692E-15   -.114E+03 -.133E-03 0.828E-16   0.494E+02 0.654E-21 -.853E-26   -.271E-03 -.383E-06 -.471E-13
   -.513E+02 0.720E+02 0.149E-06   0.570E+02 -.799E+02 0.102E-16   -.517E+01 0.719E+01 -.657E-26   0.249E-06 -.339E-04 -.271E-15
   -.513E+02 -.720E+02 -.103E-06   0.570E+02 0.799E+02 0.197E-17   -.517E+01 -.719E+01 -.631E-26   0.256E-06 0.339E-04 -.856E-14
 -----------------------------------------------------------------------------------------------
   -.391E+02 -.205E-03 0.460E-07   -.711E-14 0.000E+00 0.949E-16   0.391E+02 0.888E-15 -.214E-25   -.271E-03 -.366E-06 -.559E-13


 POSITION                                       TOTAL-FORCE (eV/Angst)
 -----------------------------------------------------------------------------------
      0.00000      0.00000      0.00000        -1.052236      0.000000     -0.000000
      0.58215      5.59336      0.00000         0.525950     -0.693035      0.000000
      0.58215      0.75680      0.00000         0.525950      0.693035      0.000000
 -----------------------------------------------------------------------------------
    total drift:                               -0.000337     -0.000206      0.000000


--------------------------------------------------------------------------------------------------------



  FREE ENERGIE OF THE ION-ELECTRON SYSTEM (eV)
  ---------------------------------------------------
  free  energy   TOTEN  =       -14.19948958 eV

  energy  without entropy=      -14.19948958  energy(sigma->0) =      -14.19948958

 d Force = 0.2982855E-04[ 0.298E-04, 0.298E-04]  d Energy = 0.2917720E-04 0.651E-06
 d Force = 0.3362631E-02[ 0.336E-02, 0.336E-02]  d Ewald  = 0.3362631E-02 0.119E-11


--------------------------------------------------------------------------------------------------------


    POTLOK:  cpu time      0.3626: real time      0.0662


--------------------------------------------------------------------------------------------------------


           RANDOM_SEED =         560335329                0                0
   IONSTEP:  cpu time      0.0001: real time      0.0001

  ENERGY OF THE ELECTRON-ION-THERMOSTAT SYSTEM (eV)
  ---------------------------------------------------
% ion-electron   TOTEN  =       -14.199490  see above
  kinetic energy EKIN   =         0.000151
  kin. lattice  EKIN_LAT=         0.000000  (temperature    0.87 K)
  nose potential ES     =         0.000000
  nose kinetic   EPS    =         0.000000
  ---------------------------------------------------
  total energy   ETOTAL =       -14.199339 eV

  maximum distance moved by ions :      0.30E-05


 mean value of Nose-termostat <S>:     1.000 mean value of <T> :     0.323
 mean temperature <T/S>/<1/S>  :     0.323

 Prediction of Wavefunctions ALPHA= 2.002 BETA=-1.003
    WAVPRE:  cpu time      0.3847: real time      0.0853
    FEWALD:  cpu time      0.0011: real time      0.0011
    ORTHCH:  cpu time      0.3303: real time      0.0387
    POTLOK:  cpu time      0.9633: real time      0.1435
    EDDIAG:  cpu time      0.0558: real time      0.0057
 writing wavefunctions
     LOOP+:  cpu time     40.7150: real time      5.2845
    4ORBIT:  cpu time      0.0000: real time      0.0000

 total amount of memory used by VASP MPI-rank0    68209. kBytes
=======================================================================

   base      :      30000. kBytes
   nonl-proj :        610. kBytes
   fftplans  :      13060. kBytes
   grid      :      23203. kBytes
   one-center:          4. kBytes
   wavefun   :       1332. kBytes

  
  
 General timing and accounting informations for this job:
 ========================================================
  
                  Total CPU time used (sec):      653.380
                            User time (sec):      469.455
                          System time (sec):      183.926
                         Elapsed time (sec):       85.801
  
                   Maximum memory used (kb):      138796.
                   Average memory used (kb):          N/A
  
                          Minor page faults:       101611
                          Major page faults:            5
                 Voluntary context switches:       140220
