 vasp.6.4.2 20Jul23 (build Nov 21 2024 16:34:56) gamma-only                      
 executed on             LinuxGNU date 2025.03.16  00:36:07
 running    1 mpi-ranks, with    8 threads/rank, on    1 nodes
 distrk:  each k-point on    1 cores,    1 groups
 distr:  one band on NCORE=   1 cores,    1 groups


--------------------------------------------------------------------------------------------------------


 INCAR:
   ISMEAR = 0
   SIGMA = 0.1
   ENCUT = 520
   IBRION = 1
   NFREE = 2
   NSW = 10
   EDIFFG = -0.02

 POTCAR:    PAW_PBE O 08Apr2002                   
 POTCAR:    PAW_PBE H 15Jun2001                   
 POTCAR:    PAW_PBE O 08Apr2002                   
   VRHFIN =O: s2p4                                                                                  
   LEXCH  = PE                                                                                      
   EATOM  =   432.3788 eV,   31.7789 Ry                                                             
                                                                                                    
   TITEL  = PAW_PBE O 08Apr2002                                                                     
   LULTRA =        F    use ultrasoft PP ?                                                          
   IUNSCR =        1    unscreen: 0-lin 1-nonlin 2-no                                               
   RPACOR =    1.200    partial core radius                                                         
   POMASS =   16.000; ZVAL   =    6.000    mass and valenz                                          
   RCORE  =    1.520    outmost cutoff radius                                                       
   RWIGS  =    1.550; RWIGS  =    0.820    wigner-seitz radius (au A)                               
   ENMAX  =  400.000; ENMIN  =  300.000 eV                                                          
   ICORE  =        2    local potential                                                             
   LCOR   =        T    correct aug charges                                                         
   LPAW   =        T    paw PP                                                                      
   EAUG   =  605.392                                                                                
   DEXC   =    0.000                                                                                
   RMAX   =    1.553    core radius for proj-oper                                                   
   RAUG   =    1.300    factor for augmentation sphere                                              
   RDEP   =    1.550    radius for radial grids                                                     
   RDEPT  =    1.329    core radius for aug-charge                                                  
                                                                                                    
   Atomic configuration                                                                             
    4 entries                                                                                       
     n  l   j            E        occ.                                                              
     1  0  0.50      -514.6923   2.0000                                                             
     2  0  0.50       -23.9615   2.0000                                                             
     2  1  0.50        -9.0305   4.0000                                                             
     3  2  1.50        -9.5241   0.0000                                                             
   Description                                                                                      
     l       E           TYP  RCUT    TYP  RCUT                                                     
     0    -23.9615318     23  1.200                                                                 
     0     -9.5240782     23  1.200                                                                 
     1     -9.0304911     23  1.520                                                                 
     1      8.1634956     23  1.520                                                                 
     2     -9.5240782      7  1.500                                                                 
  local pseudopotential read in
  partial core-charges read in
  partial kinetic energy density read in
  kinetic energy density of atom read in
  atomic valenz-charges read in
  non local Contribution for L=           0  read in
    real space projection operators read in
  non local Contribution for L=           0  read in
    real space projection operators read in
  non local Contribution for L=           1  read in
    real space projection operators read in
  non local Contribution for L=           1  read in
    real space projection operators read in
    PAW grid and wavefunctions read in

   number of l-projection  operators is LMAX  =           4
   number of lm-projection operators is LMMAX =           8

 POTCAR:    PAW_PBE H 15Jun2001                   
   VRHFIN =H: ultrasoft test                                                                        
   LEXCH  = PE                                                                                      
   EATOM  =    12.4884 eV,    0.9179 Ry                                                             
                                                                                                    
   TITEL  = PAW_PBE H 15Jun2001                                                                     
   LULTRA =        F    use ultrasoft PP ?                                                          
   IUNSCR =        0    unscreen: 0-lin 1-nonlin 2-no                                               
   RPACOR =    0.000    partial core radius                                                         
   POMASS =    1.000; ZVAL   =    1.000    mass and valenz                                          
   RCORE  =    1.100    outmost cutoff radius                                                       
   RWIGS  =    0.700; RWIGS  =    0.370    wigner-seitz radius (au A)                               
   ENMAX  =  250.000; ENMIN  =  200.000 eV                                                          
   RCLOC  =    0.701    cutoff for local pot                                                        
   LCOR   =        T    correct aug charges                                                         
   LPAW   =        T    paw PP                                                                      
   EAUG   =  400.000                                                                                
   RMAX   =    1.123    core radius for proj-oper                                                   
   RAUG   =    1.200    factor for augmentation sphere                                              
   RDEP   =    1.112    radius for radial grids                                                     
   RDEPT  =    0.926    core radius for aug-charge                                                  
                                                                                                    
   Atomic configuration                                                                             
    2 entries                                                                                       
     n  l   j            E        occ.                                                              
     1  0  0.50        -6.4927   1.0000                                                             
     2  1  0.50        -3.4015   0.0000                                                             
   Description                                                                                      
     l       E           TYP  RCUT    TYP  RCUT                                                     
     0     -6.4927494     23  1.100                                                                 
     0      6.8029130     23  1.100                                                                 
     1     -4.0817478     23  1.100                                                                 
  local pseudopotential read in
  atomic valenz-charges read in
  non local Contribution for L=           0  read in
    real space projection operators read in
  non local Contribution for L=           0  read in
    real space projection operators read in
  non local Contribution for L=           1  read in
    real space projection operators read in
    PAW grid and wavefunctions read in

   number of l-projection  operators is LMAX  =           3
   number of lm-projection operators is LMMAX =           5

  PAW_PBE O 08Apr2002                   :
 energy of atom  1       EATOM= -432.3788
 kinetic energy error for atom=    0.0208 (will be added to EATOM!!)
  PAW_PBE H 15Jun2001                   :
 energy of atom  2       EATOM=  -12.4884
 kinetic energy error for atom=    0.0014 (will be added to EATOM!!)


 POSCAR:    H2O
  positions in cartesian coordinates
  No initial velocities read in
 exchange correlation table for  LEXCH =        8
   RHO(1)=    0.500       N(1)  =     2000
   RHO(2)=  100.500       N(2)  =     4000



--------------------------------------------------------------------------------------------------------


 ion  position               nearest neighbor table
   1  0.000  0.000  0.000-   2 0.95   3 0.95
   2  0.092  0.881  0.000-   1 0.95
   3  0.092  0.119  0.000-   1 0.95

  LATTYP: Found a simple cubic cell.
 ALAT       =     6.3501600000
  
  Lattice vectors:
  
 A1 = (   6.3501600000,   0.0000000000,   0.0000000000)
 A2 = (   0.0000000000,   6.3501600000,   0.0000000000)
 A3 = (   0.0000000000,   0.0000000000,   6.3501600000)


Analysis of symmetry for initial positions (statically):
=====================================================================
 Subroutine PRICEL returns:
 Original cell was already a primitive cell.
 

 Routine SETGRP: Setting up the symmetry group for a 
 simple cubic supercell.


 Subroutine GETGRP returns: Found  4 space group operations
 (whereof  4 operations were pure point group operations)
 out of a pool of 48 trial point group operations.


The static configuration has the point symmetry C_2v.


Analysis of symmetry for dynamics (positions and initial velocities):
=====================================================================
 Subroutine PRICEL returns:
 Original cell was already a primitive cell.
 

 Routine SETGRP: Setting up the symmetry group for a 
 simple cubic supercell.


 Subroutine GETGRP returns: Found  4 space group operations
 (whereof  4 operations were pure point group operations)
 out of a pool of 48 trial point group operations.


The dynamic configuration has the point symmetry C_2v.


Analysis of constrained symmetry for selective dynamics:
=====================================================================
 Subroutine PRICEL returns:
 Original cell was already a primitive cell.
 

 Routine SETGRP: Setting up the symmetry group for a 
 simple cubic supercell.


 Subroutine GETGRP returns: Found  4 space group operations
 (whereof  4 operations were pure point group operations)
 out of a pool of 48 trial point group operations.


The constrained configuration has the point symmetry C_2v.


 Subroutine INISYM returns: Found  4 space group operations
 (whereof  4 operations are pure point group operations),
 and found     1 'primitive' translations


----------------------------------------------------------------------------------------

                                     Primitive cell                                     

  volume of cell :     256.0672

  direct lattice vectors                    reciprocal lattice vectors
     6.350160000  0.000000000  0.000000000     0.157476347  0.000000000  0.000000000
     0.000000000  6.350160000  0.000000000     0.000000000  0.157476347  0.000000000
     0.000000000  0.000000000  6.350160000     0.000000000  0.000000000  0.157476347

  length of vectors
     6.350160000  6.350160000  6.350160000     0.157476347  0.157476347  0.157476347

  position of ions in fractional coordinates (direct lattice)
     0.000000000  0.000000000  0.000000000
     0.091666667  0.880833333  0.000000000
     0.091666667  0.119166667  0.000000000

  ion indices of the primitive-cell ions
   primitive index   ion index
                 1           1
                 2           2
                 3           3

----------------------------------------------------------------------------------------



 KPOINTS: Gamma-point only                        

Automatic generation of k-mesh.
 Grid dimensions read from file:
 generate k-points for:    1    1    1

 Generating k-lattice:

  Cartesian coordinates                     Fractional coordinates (reciprocal lattice)
     0.157476347  0.000000000  0.000000000     1.000000000  0.000000000  0.000000000
     0.000000000  0.157476347  0.000000000     0.000000000  1.000000000  0.000000000
     0.000000000  0.000000000  0.157476347     0.000000000  0.000000000  1.000000000

  Length of vectors
     0.157476347  0.157476347  0.157476347

  Shift w.r.t. Gamma in fractional coordinates (k-lattice)
     0.000000000  0.000000000  0.000000000

 
 Subroutine IBZKPT returns following result:
 ===========================================
 
 Found      1 irreducible k-points:
 
 Following reciprocal coordinates:
            Coordinates               Weight
  0.000000  0.000000  0.000000      1.000000
 
 Following cartesian coordinates:
            Coordinates               Weight
  0.000000  0.000000  0.000000      1.000000
 


--------------------------------------------------------------------------------------------------------




 Dimension of arrays:
   k-points           NKPTS =      1   k-points in BZ     NKDIM =      1   number of bands    NBANDS=      8
   number of dos      NEDOS =    301   number of ions     NIONS =      3
   non local maximal  LDIM  =      4   non local SUM 2l+1 LMDIM =      8
   total plane-waves  NPLWV =  46656
   max r-space proj   IRMAX =      1   max aug-charges    IRDMAX=   2563
   dimension x,y,z NGX =    36 NGY =   36 NGZ =   36
   dimension x,y,z NGXF=    72 NGYF=   72 NGZF=   72
   support grid    NGXF=    72 NGYF=   72 NGZF=   72
   ions per type =               1   2
   NGX,Y,Z   is equivalent  to a cutoff of   9.42,  9.42,  9.42 a.u.
   NGXF,Y,Z  is equivalent  to a cutoff of  18.85, 18.85, 18.85 a.u.

 SYSTEM =  unknown system                          
 POSCAR =     H2O                                  

 Startparameter for this run:
   NWRITE =      2    write-flag & timer
   PREC   = normal    normal or accurate (medium, high low for compatibility)
   ISTART =      0    job   : 0-new  1-cont  2-samecut
   ICHARG =      2    charge: 1-file 2-atom 10-const
   ISPIN  =      1    spin polarized calculation?
   LNONCOLLINEAR =      F non collinear calculations
   LSORBIT =      F    spin-orbit coupling
   INIWAV =      1    electr: 0-lowe 1-rand  2-diag
   LASPH  =      F    aspherical Exc in radial PAW
 Electronic Relaxation 1
   ENCUT  =  520.0 eV  38.22 Ry    6.18 a.u.  11.81 11.81 11.81*2*pi/ulx,y,z
   ENINI  =  520.0     initial cutoff
   ENAUG  =  605.4 eV  augmentation charge cutoff
   NELM   =     60;   NELMIN=  2; NELMDL= -5     # of ELM steps 
   EDIFF  = 0.1E-03   stopping-criterion for ELM
   LREAL  =      F    real-space projection
   NLSPLINE    = F    spline interpolate recip. space projectors
   LCOMPAT=      F    compatible to vasp.4.4
   GGA_COMPAT  = T    GGA compatible to vasp.4.4-vasp.4.6
   LMAXPAW     = -100 max onsite density
   LMAXMIX     =    2 max onsite mixed and CHGCAR
   VOSKOWN=      0    Vosko Wilk Nusair interpolation
   ROPT   =    0.00000   0.00000
 Ionic relaxation
   EDIFFG = -.2E-01   stopping-criterion for IOM
   NSW    =     10    number of steps for IOM
   NBLOCK =      1;   KBLOCK =     10    inner block; outer block 
   IBRION =      1    ionic relax: 0-MD 1-quasi-New 2-CG
   NFREE  =      2    steps in history (QN), initial steepest desc. (CG)
   ISIF   =      2    stress and relaxation
   IWAVPR =     11    prediction:  0-non 1-charg 2-wave 3-comb
   ISYM   =      2    0-nonsym 1-usesym 2-fastsym
   LCORR  =      T    Harris-Foulkes like correction to forces

   POTIM  = 0.5000    time-step for ionic-motion
   TEIN   =    0.0    initial temperature
   TEBEG  =    0.0;   TEEND  =   0.0 temperature during run
   SMASS  =  -3.00    Nose mass-parameter (am)
   estimated Nose-frequenzy (Omega)   =  0.10E-29 period in steps = 0.13E+47 mass=  -0.922E-27a.u.
   SCALEE = 1.0000    scale energy and forces
   NPACO  =    256;   APACO  = 10.0  distance and # of slots for P.C.
   PSTRESS=    0.0 pullay stress

  Mass of Ions in am
   POMASS =  16.00  1.00
  Ionic Valenz
   ZVAL   =   6.00  1.00
  Atomic Wigner-Seitz radii
   RWIGS  =  -1.00 -1.00
  virtual crystal weights 
   VCA    =   1.00  1.00
   NELECT =       8.0000    total number of electrons
   NUPDOWN=      -1.0000    fix difference up-down

 DOS related values:
   EMIN   =  10.00;   EMAX   =-10.00  energy-range for DOS
   EFERMI =   0.00;   METHOD = LEGACY      
   ISMEAR =     0;   SIGMA  =   0.10  broadening in eV -4-tet -1-fermi 0-gaus

 Electronic relaxation 2 (details)
   IALGO  =     38    algorithm
   LDIAG  =      T    sub-space diagonalisation (order eigenvalues)
   LSUBROT=      F    optimize rotation matrix (better conditioning)
   TURBO    =      0    0=normal 1=particle mesh
   IRESTART =      0    0=no restart 2=restart with 2 vectors
   NREBOOT  =      0    no. of reboots
   NMIN     =      0    reboot dimension
   EREF     =   0.00    reference energy to select bands
   IMIX   =      4    mixing-type and parameters
     AMIX     =   0.40;   BMIX     =  1.00
     AMIX_MAG =   1.60;   BMIX_MAG =  1.00
     AMIN     =   0.10
     WC   =   100.;   INIMIX=   1;  MIXPRE=   1;  MAXMIX= -45

 Intra band minimization:
   WEIMIN = 0.0010     energy-eigenvalue tresh-hold
   EBREAK =  0.31E-05  absolut break condition
   DEPER  =   0.30     relativ break condition  

   TIME   =   0.40     timestep for ELM

  volume/ion in A,a.u.               =      85.36       576.01
  Fermi-wavevector in a.u.,A,eV,Ry     =   0.515609  0.974359  3.617139  0.265852
  Thomas-Fermi vector in A             =   1.531137

 Write flags
   LWAVE        =      T    write WAVECAR
   LDOWNSAMPLE  =      F    k-point downsampling of WAVECAR
   LCHARG       =      T    write CHGCAR
   LVTOT        =      F    write LOCPOT, total local potential
   LVHAR        =      F    write LOCPOT, Hartree potential only
   LELF         =      F    write electronic localiz. function (ELF)
   LORBIT       =      0    0 simple, 1 ext, 2 COOP (PROOUT), +10 PAW based schemes


 Dipole corrections
   LMONO  =      F    monopole corrections only (constant potential shift)
   LDIPOL =      F    correct potential (dipole corrections)
   IDIPOL =      0    1-x, 2-y, 3-z, 4-all directions 
   EPSILON=  1.0000000 bulk dielectric constant

 Exchange correlation treatment:
   GGA     =    --    GGA type
   LEXCH   =     8    internal setting for exchange type
   LIBXC   =     F    Libxc                    
   VOSKOWN =     0    Vosko Wilk Nusair interpolation
   LHFCALC =     F    Hartree Fock is set to
   LHFONE  =     F    Hartree Fock one center treatment
   AEXX    =    0.0000 exact exchange contribution

 Linear response parameters
   LEPSILON=     F    determine dielectric tensor
   LRPA    =     F    only Hartree local field effects (RPA)
   LNABLA  =     F    use nabla operator in PAW spheres
   LVEL    =     F    velocity operator in full k-point grid
   CSHIFT  =0.1000    complex shift for real part using Kramers Kronig
   OMEGAMAX=  -1.0    maximum frequency
   DEG_THRESHOLD= 0.2000000E-02 threshold for treating states as degnerate
   RTIME   =   -0.100 relaxation time in fs
  (WPLASMAI=    0.000 imaginary part of plasma frequency in eV, 0.658/RTIME)
   DFIELD  = 0.0000000 0.0000000 0.0000000 field for delta impulse in time

  Optional k-point grid parameters
   LKPOINTS_OPT  =     F    use optional k-point grid
   KPOINTS_OPT_MODE=     1    mode for optional k-point grid

 Orbital magnetization related:
   ORBITALMAG=     F  switch on orbital magnetization
   LCHIMAG   =     F  perturbation theory with respect to B field
   DQ        =  0.001000  dq finite difference perturbation B field
   LLRAUG    =     F  two centre corrections for induced B field
   LBONE     =     F  B-component reconstruction in AE one-centre
   LVGVCALC  =     T  calculate vGv susceptibility
   LVGVAPPL  =     F  apply vGv susceptibility instead of pGv for G=0

 Random number generation:
   RANDOM_GENERATOR = DEFAULT
   PCG_SEED         = not used


--------------------------------------------------------------------------------------------------------


 quasi-Newton-method for relaxation of ions
   using selective dynamics as specified on POSCAR
   WARNING: If single coordinates had been selected the selection of coordinates
            is made according to the corresponding   d i r e c t   coordinates!
            Don't support selection of single cartesian coordinates -- sorry ... !
 charge density and potential will be updated during run
 non-spin polarized calculation
 Variant of blocked Davidson
 Davidson routine will perform the subspace rotation
 perform sub-space diagonalisation
    after iterative eigenvector-optimisation
 modified Broyden-mixing scheme, WC =      100.0
 initial mixing is a Kerker type mixing with AMIX =  0.4000 and BMIX =      1.0000
 Hartree-type preconditioning will be used
 using additional bands            4
 reciprocal scheme for non local part
 use partial core corrections
 calculate Harris-corrections to forces   (improved forces if not selfconsistent)
 use gradient corrections 
 use of overlap-Matrix (Vanderbilt PP)
 Gauss-broadening in eV      SIGMA  =   0.10


--------------------------------------------------------------------------------------------------------


  energy-cutoff  :      520.00
  volume of cell :      256.07
      direct lattice vectors                 reciprocal lattice vectors
     6.350160000  0.000000000  0.000000000     0.157476347  0.000000000  0.000000000
     0.000000000  6.350160000  0.000000000     0.000000000  0.157476347  0.000000000
     0.000000000  0.000000000  6.350160000     0.000000000  0.000000000  0.157476347

  length of vectors
     6.350160000  6.350160000  6.350160000     0.157476347  0.157476347  0.157476347



 k-points in units of 2pi/SCALE and weight: Gamma-point only                        
   0.00000000  0.00000000  0.00000000       1.000

 k-points in reciprocal lattice and weights: Gamma-point only                        
   0.00000000  0.00000000  0.00000000       1.000

 position of ions in fractional coordinates (direct lattice) 
   0.00000000  0.00000000  0.00000000
   0.09166667  0.88083333  0.00000000
   0.09166667  0.11916667  0.00000000

 position of ions in cartesian coordinates  (Angst):
   0.00000000  0.00000000  0.00000000
   0.58209800  5.59343260  0.00000000
   0.58209800  0.75672740  0.00000000



--------------------------------------------------------------------------------------------------------


 use serial FFT for orbitals x direction half grid
 k-point   1 :   0.0000 0.0000 0.0000  plane waves:    3466

 maximum and minimum number of plane-waves per node :      3466     3466

 maximum number of plane-waves:      3466
 maximum index in each direction: 
   IXMAX=   11   IYMAX=   11   IZMAX=   11
   IXMIN=    0   IYMIN=  -11   IZMIN=  -11


 serial   3D FFT for wavefunctions
 parallel 3D FFT for charge:
    minimum data exchange during FFTs selected (reduces bandwidth)


 total amount of memory used by VASP MPI-rank0    67321. kBytes
=======================================================================

   base      :      30000. kBytes
   nonl-proj :        610. kBytes
   fftplans  :      13060. kBytes
   grid      :      23203. kBytes
   one-center:          4. kBytes
   wavefun   :        444. kBytes

     INWAV:  cpu time      0.0021: real time      0.0000
 Broyden mixing: mesh for mixing (old mesh)
   NGX = 23   NGY = 23   NGZ = 23
  (NGX  = 72   NGY  = 72   NGZ  = 72)
  gives a total of  12167 points

 initial charge density was supplied:
 charge density of overlapping atoms calculated
 number of electron       8.0000000 magnetization 
 keeping initial charge density in first step


--------------------------------------------------------------------------------------------------------


 Maximum index for augmentation-charges         2301 (set IRDMAX)


--------------------------------------------------------------------------------------------------------


 First call to EWALD:  gamma=   0.279
 Maximum number of real-space cells 3x 3x 3
 Maximum number of reciprocal cells 3x 3x 3

    FEWALD:  cpu time      0.6135: real time      0.0778


--------------------------------------- Ionic step        1  -------------------------------------------




--------------------------------------- Iteration      1(   1)  ---------------------------------------


    POTLOK:  cpu time      0.3928: real time      0.0707
    SETDIJ:  cpu time      0.0111: real time      0.0020
     EDDAV:  cpu time     14.4652: real time      1.8178
       DOS:  cpu time      0.0015: real time      0.0003
    --------------------------------------------
      LOOP:  cpu time     14.8707: real time      1.8907

 eigenvalue-minimisations  :    16
 total energy-change (2. order) : 0.7208279E+02  (-0.2204775E+03)
 number of electron       8.0000000 magnetization 
 augmentation part        8.0000000 magnetization 

 Free energy of the ion-electron system (eV)
  ---------------------------------------------------
  alpha Z        PSCENC =         0.87575161
  Ewald energy   TEWEN  =       -13.80331150
  -Hartree energ DENC   =      -348.16693783
  -exchange      EXHF   =         0.00000000
  -V(xc)+E(xc)   XCENC  =        32.24976667
  PAW double counting   =       350.81753176     -352.63395800
  entropy T*S    EENTRO =        -0.00000000
  eigenvalues    EBANDS =       -54.58798462
  atomic energy  EATOM  =       457.33192828
  Solvation  Ediel_sol  =         0.00000000
  ---------------------------------------------------
  free energy    TOTEN  =        72.08278637 eV

  energy without entropy =       72.08278637  energy(sigma->0) =       72.08278637


--------------------------------------------------------------------------------------------------------




--------------------------------------- Iteration      1(   2)  ---------------------------------------


     EDDAV:  cpu time     26.4827: real time      3.3350
       DOS:  cpu time      0.0019: real time      0.0003
    --------------------------------------------
      LOOP:  cpu time     26.4846: real time      3.3353

 eigenvalue-minimisations  :    32
 total energy-change (2. order) :-0.7409372E+02  (-0.7409372E+02)
 number of electron       8.0000000 magnetization 
 augmentation part        8.0000000 magnetization 

 Free energy of the ion-electron system (eV)
  ---------------------------------------------------
  alpha Z        PSCENC =         0.87575161
  Ewald energy   TEWEN  =       -13.80331150
  -Hartree energ DENC   =      -348.16693783
  -exchange      EXHF   =         0.00000000
  -V(xc)+E(xc)   XCENC  =        32.24976667
  PAW double counting   =       350.81753176     -352.63395800
  entropy T*S    EENTRO =        -0.00000000
  eigenvalues    EBANDS =      -128.68170142
  atomic energy  EATOM  =       457.33192828
  Solvation  Ediel_sol  =         0.00000000
  ---------------------------------------------------
  free energy    TOTEN  =        -2.01093043 eV

  energy without entropy =       -2.01093043  energy(sigma->0) =       -2.01093043


--------------------------------------------------------------------------------------------------------




--------------------------------------- Iteration      1(   3)  ---------------------------------------


     EDDAV:  cpu time     14.9191: real time      1.8826
       DOS:  cpu time      0.0016: real time      0.0003
    --------------------------------------------
      LOOP:  cpu time     14.9208: real time      1.8829

 eigenvalue-minimisations  :    16
 total energy-change (2. order) :-0.1402921E+02  (-0.1402921E+02)
 number of electron       8.0000000 magnetization 
 augmentation part        8.0000000 magnetization 

 Free energy of the ion-electron system (eV)
  ---------------------------------------------------
  alpha Z        PSCENC =         0.87575161
  Ewald energy   TEWEN  =       -13.80331150
  -Hartree energ DENC   =      -348.16693783
  -exchange      EXHF   =         0.00000000
  -V(xc)+E(xc)   XCENC  =        32.24976667
  PAW double counting   =       350.81753176     -352.63395800
  entropy T*S    EENTRO =        -0.00000000
  eigenvalues    EBANDS =      -142.71091293
  atomic energy  EATOM  =       457.33192828
  Solvation  Ediel_sol  =         0.00000000
  ---------------------------------------------------
  free energy    TOTEN  =       -16.04014194 eV

  energy without entropy =      -16.04014194  energy(sigma->0) =      -16.04014194


--------------------------------------------------------------------------------------------------------




--------------------------------------- Iteration      1(   4)  ---------------------------------------


     EDDAV:  cpu time     16.6232: real time      2.0907
       DOS:  cpu time      0.0011: real time      0.0001
    --------------------------------------------
      LOOP:  cpu time     16.6242: real time      2.0908

 eigenvalue-minimisations  :    16
 total energy-change (2. order) :-0.3079667E+00  (-0.3079667E+00)
 number of electron       8.0000000 magnetization 
 augmentation part        8.0000000 magnetization 

 Free energy of the ion-electron system (eV)
  ---------------------------------------------------
  alpha Z        PSCENC =         0.87575161
  Ewald energy   TEWEN  =       -13.80331150
  -Hartree energ DENC   =      -348.16693783
  -exchange      EXHF   =         0.00000000
  -V(xc)+E(xc)   XCENC  =        32.24976667
  PAW double counting   =       350.81753176     -352.63395800
  entropy T*S    EENTRO =        -0.00000000
  eigenvalues    EBANDS =      -143.01887964
  atomic energy  EATOM  =       457.33192828
  Solvation  Ediel_sol  =         0.00000000
  ---------------------------------------------------
  free energy    TOTEN  =       -16.34810865 eV

  energy without entropy =      -16.34810865  energy(sigma->0) =      -16.34810865


--------------------------------------------------------------------------------------------------------




--------------------------------------- Iteration      1(   5)  ---------------------------------------


     EDDAV:  cpu time     26.1078: real time      3.2915
       DOS:  cpu time      0.0009: real time      0.0001
    CHARGE:  cpu time      0.6456: real time      0.0850
    MIXING:  cpu time      0.0320: real time      0.0043
    --------------------------------------------
      LOOP:  cpu time     26.7863: real time      3.3810

 eigenvalue-minimisations  :    32
 total energy-change (2. order) :-0.3987749E-02  (-0.3987749E-02)
 number of electron       8.0000050 magnetization 
 augmentation part        0.8481447 magnetization 

 Broyden mixing:
  rms(total) = 0.81673E+00    rms(broyden)= 0.81585E+00
  rms(prec ) = 0.14095E+01
  weight for this iteration     100.00

 Free energy of the ion-electron system (eV)
  ---------------------------------------------------
  alpha Z        PSCENC =         0.87575161
  Ewald energy   TEWEN  =       -13.80331150
  -Hartree energ DENC   =      -348.16693783
  -exchange      EXHF   =         0.00000000
  -V(xc)+E(xc)   XCENC  =        32.24976667
  PAW double counting   =       350.81753176     -352.63395800
  entropy T*S    EENTRO =        -0.00000000
  eigenvalues    EBANDS =      -143.02286738
  atomic energy  EATOM  =       457.33192828
  Solvation  Ediel_sol  =         0.00000000
  ---------------------------------------------------
  free energy    TOTEN  =       -16.35209640 eV

  energy without entropy =      -16.35209640  energy(sigma->0) =      -16.35209640


--------------------------------------------------------------------------------------------------------




--------------------------------------- Iteration      1(   6)  ---------------------------------------


    POTLOK:  cpu time      0.3350: real time      0.0639
    SETDIJ:  cpu time      0.0160: real time      0.0016
     EDDAV:  cpu time     14.9642: real time      1.8783
       DOS:  cpu time      0.0023: real time      0.0003
    CHARGE:  cpu time      0.6339: real time      0.0818
    MIXING:  cpu time      0.0247: real time      0.0058
    --------------------------------------------
      LOOP:  cpu time     15.9761: real time      2.0318

 eigenvalue-minimisations  :    16
 total energy-change (2. order) : 0.1984801E+01  (-0.9855271E+00)
 number of electron       8.0000041 magnetization 
 augmentation part        0.7091644 magnetization 

 Broyden mixing:
  rms(total) = 0.32486E+00    rms(broyden)= 0.32454E+00
  rms(prec ) = 0.46186E+00
  weight for this iteration     100.00

 eigenvalues of (default mixing * dielectric matrix)
  average eigenvalue GAMMA=   0.9292
  0.9292

 Free energy of the ion-electron system (eV)
  ---------------------------------------------------
  alpha Z        PSCENC =         0.87575161
  Ewald energy   TEWEN  =       -13.80331150
  -Hartree energ DENC   =      -372.84729835
  -exchange      EXHF   =         0.00000000
  -V(xc)+E(xc)   XCENC  =        33.63384855
  PAW double counting   =       448.01027742     -450.20840727
  entropy T*S    EENTRO =        -0.00000000
  eigenvalues    EBANDS =      -117.36008403
  atomic energy  EATOM  =       457.33192828
  Solvation  Ediel_sol  =         0.00000000
  ---------------------------------------------------
  free energy    TOTEN  =       -14.36729529 eV

  energy without entropy =      -14.36729529  energy(sigma->0) =      -14.36729529


--------------------------------------------------------------------------------------------------------




--------------------------------------- Iteration      1(   7)  ---------------------------------------


    POTLOK:  cpu time      0.3841: real time      0.0721
    SETDIJ:  cpu time      0.0169: real time      0.0017
     EDDAV:  cpu time     20.8344: real time      2.6316
       DOS:  cpu time      0.0011: real time      0.0002
    CHARGE:  cpu time      0.6225: real time      0.0826
    MIXING:  cpu time      0.0314: real time      0.0055
    --------------------------------------------
      LOOP:  cpu time     21.8903: real time      2.7937

 eigenvalue-minimisations  :    24
 total energy-change (2. order) : 0.1085735E+00  (-0.1496529E-01)
 number of electron       8.0000041 magnetization 
 augmentation part        0.7043056 magnetization 

 Broyden mixing:
  rms(total) = 0.19781E+00    rms(broyden)= 0.19780E+00
  rms(prec ) = 0.28744E+00
  weight for this iteration     100.00

 eigenvalues of (default mixing * dielectric matrix)
  average eigenvalue GAMMA=   1.7217
  1.0453  2.3980

 Free energy of the ion-electron system (eV)
  ---------------------------------------------------
  alpha Z        PSCENC =         0.87575161
  Ewald energy   TEWEN  =       -13.80331150
  -Hartree energ DENC   =      -376.82206387
  -exchange      EXHF   =         0.00000000
  -V(xc)+E(xc)   XCENC  =        33.84787993
  PAW double counting   =       496.12828171     -498.29473707
  entropy T*S    EENTRO =        -0.00000000
  eigenvalues    EBANDS =      -113.52245083
  atomic energy  EATOM  =       457.33192828
  Solvation  Ediel_sol  =         0.00000000
  ---------------------------------------------------
  free energy    TOTEN  =       -14.25872175 eV

  energy without entropy =      -14.25872175  energy(sigma->0) =      -14.25872175


--------------------------------------------------------------------------------------------------------




--------------------------------------- Iteration      1(   8)  ---------------------------------------


    POTLOK:  cpu time      0.3672: real time      0.0697
    SETDIJ:  cpu time      0.0212: real time      0.0014
     EDDAV:  cpu time     14.7847: real time      1.8597
       DOS:  cpu time      0.0014: real time      0.0002
    CHARGE:  cpu time      0.6595: real time      0.0860
    MIXING:  cpu time      0.0386: real time      0.0057
    --------------------------------------------
      LOOP:  cpu time     15.8726: real time      2.0228

 eigenvalue-minimisations  :    16
 total energy-change (2. order) : 0.7851323E-01  (-0.6794549E-02)
 number of electron       8.0000041 magnetization 
 augmentation part        0.7036240 magnetization 

 Broyden mixing:
  rms(total) = 0.22444E-01    rms(broyden)= 0.22439E-01
  rms(prec ) = 0.57437E-01
  weight for this iteration     100.00

 eigenvalues of (default mixing * dielectric matrix)
  average eigenvalue GAMMA=   1.4806
  2.3906  1.0256  1.0256

 Free energy of the ion-electron system (eV)
  ---------------------------------------------------
  alpha Z        PSCENC =         0.87575161
  Ewald energy   TEWEN  =       -13.80331150
  -Hartree energ DENC   =      -382.08520516
  -exchange      EXHF   =         0.00000000
  -V(xc)+E(xc)   XCENC  =        34.15423285
  PAW double counting   =       568.10510088     -570.22945367
  entropy T*S    EENTRO =        -0.00000000
  eigenvalues    EBANDS =      -108.52925180
  atomic energy  EATOM  =       457.33192828
  Solvation  Ediel_sol  =         0.00000000
  ---------------------------------------------------
  free energy    TOTEN  =       -14.18020852 eV

  energy without entropy =      -14.18020852  energy(sigma->0) =      -14.18020852


--------------------------------------------------------------------------------------------------------




--------------------------------------- Iteration      1(   9)  ---------------------------------------


    POTLOK:  cpu time      0.3391: real time      0.0654
    SETDIJ:  cpu time      0.0014: real time      0.0014
     EDDAV:  cpu time     21.7805: real time      2.7472
       DOS:  cpu time      0.0009: real time      0.0001
    CHARGE:  cpu time      0.6455: real time      0.0823
    MIXING:  cpu time      0.0164: real time      0.0059
    --------------------------------------------
      LOOP:  cpu time     22.7838: real time      2.9024

 eigenvalue-minimisations  :    24
 total energy-change (2. order) :-0.5020111E-02  (-0.7892783E-03)
 number of electron       8.0000041 magnetization 
 augmentation part        0.6998075 magnetization 

 Broyden mixing:
  rms(total) = 0.15688E-01    rms(broyden)= 0.15680E-01
  rms(prec ) = 0.38441E-01
  weight for this iteration     100.00

 eigenvalues of (default mixing * dielectric matrix)
  average eigenvalue GAMMA=   1.9011
  0.9974  0.9974  3.0229  2.5867

 Free energy of the ion-electron system (eV)
  ---------------------------------------------------
  alpha Z        PSCENC =         0.87575161
  Ewald energy   TEWEN  =       -13.80331150
  -Hartree energ DENC   =      -382.83887372
  -exchange      EXHF   =         0.00000000
  -V(xc)+E(xc)   XCENC  =        34.18244235
  PAW double counting   =       563.60723086     -565.73782350
  entropy T*S    EENTRO =        -0.00000000
  eigenvalues    EBANDS =      -107.80257300
  atomic energy  EATOM  =       457.33192828
  Solvation  Ediel_sol  =         0.00000000
  ---------------------------------------------------
  free energy    TOTEN  =       -14.18522863 eV

  energy without entropy =      -14.18522863  energy(sigma->0) =      -14.18522863


--------------------------------------------------------------------------------------------------------




--------------------------------------- Iteration      1(  10)  ---------------------------------------


    POTLOK:  cpu time      0.3485: real time      0.0651
    SETDIJ:  cpu time      0.0164: real time      0.0015
     EDDAV:  cpu time     15.2906: real time      1.9196
       DOS:  cpu time      0.0010: real time      0.0001
    CHARGE:  cpu time      0.6571: real time      0.0855
    MIXING:  cpu time      0.0386: real time      0.0062
    --------------------------------------------
      LOOP:  cpu time     16.3522: real time      2.0780

 eigenvalue-minimisations  :    16
 total energy-change (2. order) :-0.9319728E-02  (-0.4360453E-03)
 number of electron       8.0000041 magnetization 
 augmentation part        0.7014946 magnetization 

 Broyden mixing:
  rms(total) = 0.72682E-02    rms(broyden)= 0.72652E-02
  rms(prec ) = 0.13074E-01
  weight for this iteration     100.00

 eigenvalues of (default mixing * dielectric matrix)
  average eigenvalue GAMMA=   1.7844
  3.3262  2.3825  0.9906  0.9906  1.2321

 Free energy of the ion-electron system (eV)
  ---------------------------------------------------
  alpha Z        PSCENC =         0.87575161
  Ewald energy   TEWEN  =       -13.80331150
  -Hartree energ DENC   =      -383.04112813
  -exchange      EXHF   =         0.00000000
  -V(xc)+E(xc)   XCENC  =        34.17015693
  PAW double counting   =       553.80041302     -555.92179285
  entropy T*S    EENTRO =        -0.00000000
  eigenvalues    EBANDS =      -107.60656571
  atomic energy  EATOM  =       457.33192828
  Solvation  Ediel_sol  =         0.00000000
  ---------------------------------------------------
  free energy    TOTEN  =       -14.19454836 eV

  energy without entropy =      -14.19454836  energy(sigma->0) =      -14.19454836


--------------------------------------------------------------------------------------------------------




--------------------------------------- Iteration      1(  11)  ---------------------------------------


    POTLOK:  cpu time      0.3685: real time      0.0679
    SETDIJ:  cpu time      0.0015: real time      0.0015
     EDDAV:  cpu time     20.9143: real time      2.6381
       DOS:  cpu time      0.0008: real time      0.0001
    CHARGE:  cpu time      0.6439: real time      0.0868
    MIXING:  cpu time      0.0365: real time      0.0056
    --------------------------------------------
      LOOP:  cpu time     21.9656: real time      2.8001

 eigenvalue-minimisations  :    24
 total energy-change (2. order) :-0.2668853E-02  (-0.2256876E-03)
 number of electron       8.0000041 magnetization 
 augmentation part        0.6995577 magnetization 

 Broyden mixing:
  rms(total) = 0.55088E-02    rms(broyden)= 0.55058E-02
  rms(prec ) = 0.10738E-01
  weight for this iteration     100.00

 eigenvalues of (default mixing * dielectric matrix)
  average eigenvalue GAMMA=   2.0523
  4.1411  2.8704  2.3701  1.0623  0.9350  0.9350

 Free energy of the ion-electron system (eV)
  ---------------------------------------------------
  alpha Z        PSCENC =         0.87575161
  Ewald energy   TEWEN  =       -13.80331150
  -Hartree energ DENC   =      -383.46089519
  -exchange      EXHF   =         0.00000000
  -V(xc)+E(xc)   XCENC  =        34.19208014
  PAW double counting   =       557.12398868     -559.24972284
  entropy T*S    EENTRO =        -0.00000000
  eigenvalues    EBANDS =      -107.20703639
  atomic energy  EATOM  =       457.33192828
  Solvation  Ediel_sol  =         0.00000000
  ---------------------------------------------------
  free energy    TOTEN  =       -14.19721721 eV

  energy without entropy =      -14.19721721  energy(sigma->0) =      -14.19721721


--------------------------------------------------------------------------------------------------------




--------------------------------------- Iteration      1(  12)  ---------------------------------------


    POTLOK:  cpu time      0.3727: real time      0.0700
    SETDIJ:  cpu time      0.0234: real time      0.0016
     EDDAV:  cpu time     16.3190: real time      2.0609
       DOS:  cpu time      0.0015: real time      0.0003
    CHARGE:  cpu time      0.6483: real time      0.0857
    MIXING:  cpu time      0.0414: real time      0.0059
    --------------------------------------------
      LOOP:  cpu time     17.4063: real time      2.2243

 eigenvalue-minimisations  :    16
 total energy-change (2. order) :-0.1710910E-02  (-0.6458035E-04)
 number of electron       8.0000041 magnetization 
 augmentation part        0.7003552 magnetization 

 Broyden mixing:
  rms(total) = 0.18148E-02    rms(broyden)= 0.18143E-02
  rms(prec ) = 0.28664E-02
  weight for this iteration     100.00

 eigenvalues of (default mixing * dielectric matrix)
  average eigenvalue GAMMA=   1.9441
  4.1642  2.8267  2.5007  1.1054  1.1054  0.9534  0.9534

 Free energy of the ion-electron system (eV)
  ---------------------------------------------------
  alpha Z        PSCENC =         0.87575161
  Ewald energy   TEWEN  =       -13.80331150
  -Hartree energ DENC   =      -383.27827772
  -exchange      EXHF   =         0.00000000
  -V(xc)+E(xc)   XCENC  =        34.17914882
  PAW double counting   =       556.83468652     -558.95857977
  entropy T*S    EENTRO =        -0.00000000
  eigenvalues    EBANDS =      -107.38027435
  atomic energy  EATOM  =       457.33192828
  Solvation  Ediel_sol  =         0.00000000
  ---------------------------------------------------
  free energy    TOTEN  =       -14.19892812 eV

  energy without entropy =      -14.19892812  energy(sigma->0) =      -14.19892812


--------------------------------------------------------------------------------------------------------




--------------------------------------- Iteration      1(  13)  ---------------------------------------


    POTLOK:  cpu time      0.3883: real time      0.0720
    SETDIJ:  cpu time      0.0016: real time      0.0016
     EDDAV:  cpu time     22.0769: real time      2.7772
       DOS:  cpu time      0.0023: real time      0.0003
    CHARGE:  cpu time      0.6603: real time      0.0841
    MIXING:  cpu time      0.0262: real time      0.0061
    --------------------------------------------
      LOOP:  cpu time     23.1556: real time      2.9413

 eigenvalue-minimisations  :    24
 total energy-change (2. order) :-0.2468106E-03  (-0.6475273E-05)
 number of electron       8.0000041 magnetization 
 augmentation part        0.7006190 magnetization 

 Broyden mixing:
  rms(total) = 0.74179E-03    rms(broyden)= 0.74053E-03
  rms(prec ) = 0.11384E-02
  weight for this iteration     100.00

 eigenvalues of (default mixing * dielectric matrix)
  average eigenvalue GAMMA=   2.0482
  4.7493  2.7896  2.7207  2.2418  1.1077  0.9307  0.9307  0.9153

 Free energy of the ion-electron system (eV)
  ---------------------------------------------------
  alpha Z        PSCENC =         0.87575161
  Ewald energy   TEWEN  =       -13.80331150
  -Hartree energ DENC   =      -383.24118033
  -exchange      EXHF   =         0.00000000
  -V(xc)+E(xc)   XCENC  =        34.17707184
  PAW double counting   =       556.93407512     -559.05731116
  entropy T*S    EENTRO =        -0.00000000
  eigenvalues    EBANDS =      -107.41619879
  atomic energy  EATOM  =       457.33192828
  Solvation  Ediel_sol  =         0.00000000
  ---------------------------------------------------
  free energy    TOTEN  =       -14.19917493 eV

  energy without entropy =      -14.19917493  energy(sigma->0) =      -14.19917493


--------------------------------------------------------------------------------------------------------




--------------------------------------- Iteration      1(  14)  ---------------------------------------


    POTLOK:  cpu time      0.3566: real time      0.0681
    SETDIJ:  cpu time      0.0017: real time      0.0017
     EDDAV:  cpu time     21.2753: real time      2.6726
       DOS:  cpu time      0.0011: real time      0.0002
    CHARGE:  cpu time      0.6657: real time      0.0864
    MIXING:  cpu time      0.0366: real time      0.0063
    --------------------------------------------
      LOOP:  cpu time     22.3370: real time      2.8352

 eigenvalue-minimisations  :    24
 total energy-change (2. order) :-0.1445459E-03  (-0.1735060E-05)
 number of electron       8.0000041 magnetization 
 augmentation part        0.7005907 magnetization 

 Broyden mixing:
  rms(total) = 0.20890E-03    rms(broyden)= 0.20873E-03
  rms(prec ) = 0.32016E-03
  weight for this iteration     100.00

 eigenvalues of (default mixing * dielectric matrix)
  average eigenvalue GAMMA=   2.0687
  4.9588  3.2984  2.4302  2.4302  1.5117  1.1510  0.9402  0.9402  0.9580

 Free energy of the ion-electron system (eV)
  ---------------------------------------------------
  alpha Z        PSCENC =         0.87575161
  Ewald energy   TEWEN  =       -13.80331150
  -Hartree energ DENC   =      -383.22554698
  -exchange      EXHF   =         0.00000000
  -V(xc)+E(xc)   XCENC  =        34.17604714
  PAW double counting   =       556.72597306     -558.84925862
  entropy T*S    EENTRO =        -0.00000000
  eigenvalues    EBANDS =      -107.43090247
  atomic energy  EATOM  =       457.33192828
  Solvation  Ediel_sol  =         0.00000000
  ---------------------------------------------------
  free energy    TOTEN  =       -14.19931948 eV

  energy without entropy =      -14.19931948  energy(sigma->0) =      -14.19931948


--------------------------------------------------------------------------------------------------------




--------------------------------------- Iteration      1(  15)  ---------------------------------------


    POTLOK:  cpu time      0.3594: real time      0.0680
    SETDIJ:  cpu time      0.0014: real time      0.0014
     EDDAV:  cpu time     20.5878: real time      2.5853
       DOS:  cpu time      0.0027: real time      0.0004
    --------------------------------------------
      LOOP:  cpu time     20.9515: real time      2.6551

 eigenvalue-minimisations  :    24
 total energy-change (2. order) :-0.1411350E-04  (-0.1365622E-06)
 number of electron       8.0000041 magnetization 
 augmentation part        0.7005907 magnetization 

 Free energy of the ion-electron system (eV)
  ---------------------------------------------------
  alpha Z        PSCENC =         0.87575161
  Ewald energy   TEWEN  =       -13.80331150
  -Hartree energ DENC   =      -383.21528976
  -exchange      EXHF   =         0.00000000
  -V(xc)+E(xc)   XCENC  =        34.17552496
  PAW double counting   =       556.65983413     -558.78302963
  entropy T*S    EENTRO =        -0.00000000
  eigenvalues    EBANDS =      -107.44074168
  atomic energy  EATOM  =       457.33192828
  Solvation  Ediel_sol  =         0.00000000
  ---------------------------------------------------
  free energy    TOTEN  =       -14.19933359 eV

  energy without entropy =      -14.19933359  energy(sigma->0) =      -14.19933359


--------------------------------------------------------------------------------------------------------




 average (electrostatic) potential at core
  the test charge radii are     0.7215  0.5201
  (the norm of the test charge is              1.0000)
       1 -80.1842       2 -44.5604       3 -44.5604



 E-fermi :  -6.3825     XC(G=0):  -1.7414     alpha+bet : -0.5081

 Fermi energy:        -6.3825232152

 k-point     1 :       0.0000    0.0000    0.0000
  band No.  band energies     occupation 
      1     -25.0967      2.00000
      2     -12.8906      2.00000
      3      -8.8891      2.00000
      4      -6.8439      2.00000
      5      -1.2156      0.00000
      6       2.1769      0.00000
      7       2.2253      0.00000
      8       2.5776      0.00000


--------------------------------------------------------------------------------------------------------


 soft charge-density along one line, spin component           1
         0         1         2         3         4         5         6         7         8         9
 total charge-density along one line

 pseudopotential strength for first ion, spin component:           1
 13.747 -16.849   0.000  -0.000  -0.125  -0.000   0.000   0.157
-16.849  20.681  -0.000   0.000   0.159   0.000  -0.000  -0.200
  0.000  -0.000 -10.507   0.000   0.000  13.012  -0.000  -0.000
 -0.000   0.000   0.000 -10.259  -0.000  -0.000  12.681   0.000
 -0.125   0.159   0.000  -0.000 -10.403  -0.000   0.000  12.874
 -0.000   0.000  13.012  -0.000  -0.000 -16.042   0.000   0.000
  0.000  -0.000  -0.000  12.681   0.000   0.000 -15.594  -0.000
  0.157  -0.200  -0.000   0.000  12.874   0.000  -0.000 -15.855
 total augmentation occupancy for first ion, spin component:           1
  2.785   0.470   0.000   0.000   0.443   0.000   0.000   0.176
  0.470   0.131   0.000   0.000   0.417   0.000   0.000   0.077
  0.000   0.000   2.455   0.000   0.000   0.479   0.000   0.000
  0.000   0.000   0.000   2.140   0.000   0.000   0.140   0.000
  0.443   0.417   0.000   0.000   2.327   0.000   0.000   0.337
  0.000   0.000   0.479   0.000   0.000   0.093   0.000   0.000
  0.000   0.000   0.000   0.140   0.000   0.000   0.009   0.000
  0.176   0.077   0.000   0.000   0.337   0.000   0.000   0.053


------------------------ aborting loop because EDIFF is reached ----------------------------------------


    CHARGE:  cpu time      0.0672: real time      0.0098
    FORLOC:  cpu time      0.0163: real time      0.0029
    FORNL :  cpu time      0.0620: real time      0.0061
    STRESS:  cpu time      3.3419: real time      0.4218
    FORCOR:  cpu time      0.3686: real time      0.0671
    FORHAR:  cpu time      0.0943: real time      0.0264
    MIXING:  cpu time      0.0438: real time      0.0071
    OFIELD:  cpu time      0.0000: real time      0.0000

  FORCE on cell =-STRESS in cart. coord.  units (eV):
  Direction    XX          YY          ZZ          XY          YZ          ZX
  --------------------------------------------------------------------------------------
  Alpha Z     0.87575     0.87575     0.87575
  Ewald      -0.90944    56.47707   -69.37100     0.00000     0.00000    -0.00000
  Hartree   128.59546   138.44874   116.17963    -0.00000    -0.00000    -0.00000
  E(xc)     -36.28593   -36.08305   -36.57743     0.00000    -0.00000    -0.00000
  Local    -216.92192  -267.99333  -157.03339    -0.00000     0.00000    -0.00000
  n-local   -31.44987   -30.67404   -31.11671    -0.00000     0.00000     0.00000
  augment     6.81696     5.80032     8.23226    -0.00000    -0.00000     0.00000
  Kinetic   149.82847   134.19076   168.85597     0.00000    -0.00000     0.00000
  Fock        0.00000     0.00000     0.00000     0.00000     0.00000     0.00000
  -------------------------------------------------------------------------------------
  Total       0.54948     1.04224     0.04508     0.00000     0.00000     0.00000
  in kB       3.43800     6.52114     0.28204     0.00000     0.00000     0.00000
  external pressure =        3.41 kB  Pullay stress =        0.00 kB


 VOLUME and BASIS-vectors are now :
 -----------------------------------------------------------------------------
  energy-cutoff  :      520.00
  volume of cell :      256.07
      direct lattice vectors                 reciprocal lattice vectors
     6.350160000  0.000000000  0.000000000     0.157476347  0.000000000  0.000000000
     0.000000000  6.350160000  0.000000000     0.000000000  0.157476347  0.000000000
     0.000000000  0.000000000  6.350160000     0.000000000  0.000000000  0.157476347

  length of vectors
     6.350160000  6.350160000  6.350160000     0.157476347  0.157476347  0.157476347


 FORCES acting on ions
    electron-ion (+dipol)            ewald-force                    non-local-force                 convergence-correction
 -----------------------------------------------------------------------------------------------
   0.635E+02 -.122E-14 -.103E-14   -.114E+03 -.142E-13 0.732E-16   0.494E+02 -.581E-26 0.484E-25   0.294E-02 0.229E-13 0.160E-13
   -.513E+02 0.720E+02 0.149E-06   0.570E+02 -.799E+02 0.105E-16   -.517E+01 0.720E+01 0.313E-25   0.517E-03 -.400E-03 0.928E-15
   -.513E+02 -.720E+02 -.102E-06   0.570E+02 0.799E+02 0.112E-16   -.517E+01 -.720E+01 -.294E-25   0.517E-03 0.400E-03 0.146E-15
 -----------------------------------------------------------------------------------------------
   -.391E+02 -.711E-13 0.468E-07   -.711E-14 0.000E+00 0.949E-16   0.391E+02 0.000E+00 0.503E-25   0.397E-02 0.232E-13 0.171E-13


 POSITION                                       TOTAL-FORCE (eV/Angst)
 -----------------------------------------------------------------------------------
      0.00000      0.00000      0.00000        -1.056764      0.000000     -0.000000
      0.58210      5.59343      0.00000         0.528382     -0.696497      0.000000
      0.58210      0.75673      0.00000         0.528382      0.696497     -0.000000
 -----------------------------------------------------------------------------------
    total drift:                               -0.000702     -0.000000      0.000000


--------------------------------------------------------------------------------------------------------



  FREE ENERGIE OF THE ION-ELECTRON SYSTEM (eV)
  ---------------------------------------------------
  free  energy   TOTEN  =       -14.19933359 eV

  energy  without entropy=      -14.19933359  energy(sigma->0) =      -14.19933359



--------------------------------------------------------------------------------------------------------


    POTLOK:  cpu time      0.3750: real time      0.0710


--------------------------------------------------------------------------------------------------------


 Quasi-Newton relaxation of ions (Broydens 2nd method)
  g(Force)  = 0.737E-01   g(Stress)= 0.000E+00

 Reset! Starting new Quasi-Newton update for ions 


--------------------------------------------------------------------------------------------------------


    WAVPRE:  cpu time      0.4099: real time      0.3293
    FEWALD:  cpu time      0.0029: real time      0.0011
    ORTHCH:  cpu time      0.3426: real time      0.0417
     LOOP+:  cpu time    303.5169: real time     38.8525


--------------------------------------- Ionic step        2  -------------------------------------------




--------------------------------------- Iteration      2(   1)  ---------------------------------------


    POTLOK:  cpu time      0.9522: real time      0.1409
    SETDIJ:  cpu time      0.0016: real time      0.0016
     EDDAV:  cpu time     14.8565: real time      1.8743
       DOS:  cpu time      0.0021: real time      0.0003
    CHARGE:  cpu time      0.7170: real time      0.0979
    MIXING:  cpu time      0.0212: real time      0.0043
    --------------------------------------------
      LOOP:  cpu time     16.5506: real time      2.1193

 eigenvalue-minimisations  :    16
 total energy-change (2. order) : 0.3049211E-02  (-0.1570118E+00)
 number of electron       8.0000035 magnetization 
 augmentation part        0.6717050 magnetization 

 Broyden mixing:
  rms(total) = 0.83286E-01    rms(broyden)= 0.83245E-01
  rms(prec ) = 0.12673E+00
  weight for this iteration     100.00

 Free energy of the ion-electron system (eV)
  ---------------------------------------------------
  alpha Z        PSCENC =         0.87575161
  Ewald energy   TEWEN  =       -21.72123983
  -Hartree energ DENC   =      -379.11427482
  -exchange      EXHF   =         0.00000000
  -V(xc)+E(xc)   XCENC  =        33.97211863
  PAW double counting   =       556.63927114     -558.76250291
  entropy T*S    EENTRO =        -0.00000000
  eigenvalues    EBANDS =      -103.41732237
  atomic energy  EATOM  =       457.33192828
  Solvation  Ediel_sol  =         0.00000000
  ---------------------------------------------------
  free energy    TOTEN  =       -14.19627026 eV

  energy without entropy =      -14.19627026  energy(sigma->0) =      -14.19627026


--------------------------------------------------------------------------------------------------------




--------------------------------------- Iteration      2(   2)  ---------------------------------------


    POTLOK:  cpu time      0.3349: real time      0.0643
    SETDIJ:  cpu time      0.0180: real time      0.0014
     EDDAV:  cpu time     21.9183: real time      2.7627
       DOS:  cpu time      0.0023: real time      0.0003
    CHARGE:  cpu time      0.6619: real time      0.0864
    MIXING:  cpu time      0.0278: real time      0.0053
    --------------------------------------------
      LOOP:  cpu time     22.9631: real time      2.9205

 eigenvalue-minimisations  :    24
 total energy-change (2. order) : 0.1238425E-01  (-0.7715585E-02)
 number of electron       8.0000036 magnetization 
 augmentation part        0.6807296 magnetization 

 Broyden mixing:
  rms(total) = 0.31166E-01    rms(broyden)= 0.31133E-01
  rms(prec ) = 0.39153E-01
  weight for this iteration     100.00

 eigenvalues of (default mixing * dielectric matrix)
  average eigenvalue GAMMA=   1.1627
  1.1627

 Free energy of the ion-electron system (eV)
  ---------------------------------------------------
  alpha Z        PSCENC =         0.87575161
  Ewald energy   TEWEN  =       -21.72123983
  -Hartree energ DENC   =      -377.19017691
  -exchange      EXHF   =         0.00000000
  -V(xc)+E(xc)   XCENC  =        33.86468254
  PAW double counting   =       544.15940054     -546.24589932
  entropy T*S    EENTRO =        -0.00000000
  eigenvalues    EBANDS =      -105.25833292
  atomic energy  EATOM  =       457.33192828
  Solvation  Ediel_sol  =         0.00000000
  ---------------------------------------------------
  free energy    TOTEN  =       -14.18388601 eV

  energy without entropy =      -14.18388601  energy(sigma->0) =      -14.18388601


--------------------------------------------------------------------------------------------------------




--------------------------------------- Iteration      2(   3)  ---------------------------------------


    POTLOK:  cpu time      0.3382: real time      0.0642
    SETDIJ:  cpu time      0.0155: real time      0.0015
     EDDAV:  cpu time     21.2814: real time      2.6710
       DOS:  cpu time      0.0011: real time      0.0002
    CHARGE:  cpu time      0.6297: real time      0.0823
    MIXING:  cpu time      0.0374: real time      0.0055
    --------------------------------------------
      LOOP:  cpu time     22.3033: real time      2.8247

 eigenvalue-minimisations  :    24
 total energy-change (2. order) : 0.4689520E-03  (-0.1821281E-03)
 number of electron       8.0000036 magnetization 
 augmentation part        0.6819579 magnetization 

 Broyden mixing:
  rms(total) = 0.16117E-01    rms(broyden)= 0.16113E-01
  rms(prec ) = 0.20163E-01
  weight for this iteration     100.00

 eigenvalues of (default mixing * dielectric matrix)
  average eigenvalue GAMMA=   1.6231
  1.1376  2.1085

 Free energy of the ion-electron system (eV)
  ---------------------------------------------------
  alpha Z        PSCENC =         0.87575161
  Ewald energy   TEWEN  =       -21.72123983
  -Hartree energ DENC   =      -377.02026928
  -exchange      EXHF   =         0.00000000
  -V(xc)+E(xc)   XCENC  =        33.85594781
  PAW double counting   =       537.86587745     -539.94287049
  entropy T*S    EENTRO =        -0.00000000
  eigenvalues    EBANDS =      -105.42854260
  atomic energy  EATOM  =       457.33192828
  Solvation  Ediel_sol  =         0.00000000
  ---------------------------------------------------
  free energy    TOTEN  =       -14.18341706 eV

  energy without entropy =      -14.18341706  energy(sigma->0) =      -14.18341706


--------------------------------------------------------------------------------------------------------




--------------------------------------- Iteration      2(   4)  ---------------------------------------


    POTLOK:  cpu time      0.3418: real time      0.0645
    SETDIJ:  cpu time      0.0017: real time      0.0017
     EDDAV:  cpu time     19.9591: real time      2.5142
       DOS:  cpu time      0.0024: real time      0.0003
    --------------------------------------------
      LOOP:  cpu time     20.3050: real time      2.5806

 eigenvalue-minimisations  :    24
 total energy-change (2. order) : 0.2052235E-04  (-0.9308469E-04)
 number of electron       8.0000036 magnetization 
 augmentation part        0.6819579 magnetization 

 Free energy of the ion-electron system (eV)
  ---------------------------------------------------
  alpha Z        PSCENC =         0.87575161
  Ewald energy   TEWEN  =       -21.72123983
  -Hartree energ DENC   =      -377.11751180
  -exchange      EXHF   =         0.00000000
  -V(xc)+E(xc)   XCENC  =        33.86153486
  PAW double counting   =       531.85106680     -533.92307205
  entropy T*S    EENTRO =        -0.00000000
  eigenvalues    EBANDS =      -105.34185441
  atomic energy  EATOM  =       457.33192828
  Solvation  Ediel_sol  =         0.00000000
  ---------------------------------------------------
  free energy    TOTEN  =       -14.18339654 eV

  energy without entropy =      -14.18339654  energy(sigma->0) =      -14.18339654


--------------------------------------------------------------------------------------------------------




 average (electrostatic) potential at core
  the test charge radii are     0.7215  0.5201
  (the norm of the test charge is              1.0000)
       1 -80.1256       2 -44.0148       3 -44.0148



 E-fermi :  -6.2572     XC(G=0):  -1.7588     alpha+bet : -0.5081

 Fermi energy:        -6.2571776085

 k-point     1 :       0.0000    0.0000    0.0000
  band No.  band energies     occupation 
      1     -24.6182      2.00000
      2     -12.4944      2.00000
      3      -8.8158      2.00000
      4      -6.7426      2.00000
      5      -1.3326      0.00000
      6       2.0242      0.00000
      7       2.0651      0.00000
      8       2.5339      0.00000


--------------------------------------------------------------------------------------------------------


 soft charge-density along one line, spin component           1
         0         1         2         3         4         5         6         7         8         9
 total charge-density along one line

 pseudopotential strength for first ion, spin component:           1
 13.739 -16.839   0.000  -0.000  -0.115  -0.000   0.000   0.145
-16.839  20.670  -0.000   0.000   0.147   0.000  -0.000  -0.185
  0.000  -0.000 -10.493  -0.000  -0.000  12.997   0.000   0.000
 -0.000   0.000  -0.000 -10.263  -0.000   0.000  12.687   0.000
 -0.115   0.147  -0.000  -0.000 -10.400   0.000   0.000  12.871
 -0.000   0.000  12.997   0.000   0.000 -16.024  -0.000  -0.000
  0.000  -0.000   0.000  12.687   0.000  -0.000 -15.606  -0.000
  0.145  -0.185   0.000   0.000  12.871  -0.000  -0.000 -15.855
 total augmentation occupancy for first ion, spin component:           1
  2.680   0.414   0.000   0.000   0.389   0.000   0.000   0.154
  0.414   0.116   0.000   0.000   0.396   0.000   0.000   0.069
  0.000   0.000   2.341   0.000   0.000   0.444   0.000   0.000
  0.000   0.000   0.000   2.122   0.000   0.000   0.132   0.000
  0.389   0.396   0.000   0.000   2.246   0.000   0.000   0.316
  0.000   0.000   0.444   0.000   0.000   0.084   0.000   0.000
  0.000   0.000   0.000   0.132   0.000   0.000   0.008   0.000
  0.154   0.069   0.000   0.000   0.316   0.000   0.000   0.048


------------------------ aborting loop because EDIFF is reached ----------------------------------------


    CHARGE:  cpu time      0.0525: real time      0.0090
    FORLOC:  cpu time      0.0265: real time      0.0028
    FORNL :  cpu time      0.0619: real time      0.0060
    STRESS:  cpu time      3.0801: real time      0.3877
    FORCOR:  cpu time      0.3617: real time      0.0667
    FORHAR:  cpu time      0.0850: real time      0.0264
    MIXING:  cpu time      0.0324: real time      0.0052
    OFIELD:  cpu time      0.0000: real time      0.0000

  FORCE on cell =-STRESS in cart. coord.  units (eV):
  Direction    XX          YY          ZZ          XY          YZ          ZX
  --------------------------------------------------------------------------------------
  Alpha Z     0.87575     0.87575     0.87575
  Ewald      -3.76334    51.47459   -69.43254    -0.00000    -0.00000     0.00000
  Hartree   126.43074   136.62355   113.84833    -0.00000    -0.00000    -0.00000
  E(xc)     -35.95872   -35.75303   -36.25007    -0.00000    -0.00000    -0.00000
  Local    -212.57456  -263.37704  -154.02812     0.00000    -0.00000    -0.00000
  n-local   -30.44923   -29.61810   -30.58656    -0.00000     0.00000    -0.00000
  augment     6.68806     5.74407     8.10810     0.00000    -0.00000     0.00000
  Kinetic   147.89669   132.38404   167.41447     0.00000    -0.00000     0.00000
  Fock        0.00000     0.00000     0.00000     0.00000     0.00000     0.00000
  -------------------------------------------------------------------------------------
  Total      -0.85460    -1.64616    -0.05063     0.00000     0.00000     0.00000
  in kB      -5.34713   -10.29983    -0.31680     0.00000     0.00000     0.00000
  external pressure =       -5.32 kB  Pullay stress =        0.00 kB


 VOLUME and BASIS-vectors are now :
 -----------------------------------------------------------------------------
  energy-cutoff  :      520.00
  volume of cell :      256.07
      direct lattice vectors                 reciprocal lattice vectors
     6.350160000  0.000000000  0.000000000     0.157476347  0.000000000  0.000000000
     0.000000000  6.350160000  0.000000000     0.000000000  0.157476347  0.000000000
     0.000000000  0.000000000  6.350160000     0.000000000  0.000000000  0.157476347

  length of vectors
     6.350160000  6.350160000  6.350160000     0.157476347  0.157476347  0.157476347


 FORCES acting on ions
    electron-ion (+dipol)            ewald-force                    non-local-force                 convergence-correction
 -----------------------------------------------------------------------------------------------
   0.578E+02 -.126E-14 0.465E-16   -.104E+03 0.284E-13 0.109E-15   0.478E+02 -.198E-27 0.169E-24   -.854E-01 0.194E-13 -.824E-14
   -.483E+02 0.679E+02 -.289E-08   0.522E+02 -.731E+02 -.846E-17   -.441E+01 0.620E+01 0.162E-24   -.159E-01 0.113E-01 -.240E-15
   -.483E+02 -.679E+02 -.999E-07   0.522E+02 0.731E+02 -.570E-17   -.441E+01 -.620E+01 0.118E-24   -.159E-01 -.113E-01 -.195E-14
 -----------------------------------------------------------------------------------------------
   -.388E+02 0.000E+00 -.103E-06   -.711E-14 0.000E+00 0.949E-16   0.389E+02 0.888E-15 0.449E-24   -.117E+00 0.195E-13 -.104E-13


 POSITION                                       TOTAL-FORCE (eV/Angst)
 -----------------------------------------------------------------------------------
      0.00000      0.00000      0.00000         1.178362     -0.000000      0.000000
      0.60759      5.55983      0.00000        -0.589181      0.984715     -0.000000
      0.60759      0.79033      0.00000        -0.589181     -0.984715      0.000000
 -----------------------------------------------------------------------------------
    total drift:                                0.023045      0.000000     -0.000000


--------------------------------------------------------------------------------------------------------



  FREE ENERGIE OF THE ION-ELECTRON SYSTEM (eV)
  ---------------------------------------------------
  free  energy   TOTEN  =       -14.18339654 eV

  energy  without entropy=      -14.18339654  energy(sigma->0) =      -14.18339654

 d Force =-0.1123417E-01[-0.962E-01, 0.737E-01]  d Energy =-0.1593705E-01 0.470E-02
 d Force = 0.7925462E+01[ 0.757E+01, 0.828E+01]  d Ewald  = 0.7917928E+01 0.753E-02


--------------------------------------------------------------------------------------------------------


    POTLOK:  cpu time      0.3626: real time      0.0681


--------------------------------------------------------------------------------------------------------


 Quasi-Newton relaxation of ions (Broydens 2nd method)
  g(Force)  = 0.127E+00   g(Stress)= 0.000E+00

 retain information from N=  1 steps
 eigenvalues of (default step * inverse Hessian matrix)
  average eigenvalue of G=   0.4322
 eigenvalue spectrum of G is  0.4322


--------------------------------------------------------------------------------------------------------


    WAVPRE:  cpu time      0.1014: real time      0.0471
    FEWALD:  cpu time      0.0010: real time      0.0010
    ORTHCH:  cpu time      0.3644: real time      0.0444
     LOOP+:  cpu time     86.6654: real time     11.1125


--------------------------------------- Ionic step        3  -------------------------------------------




--------------------------------------- Iteration      3(   1)  ---------------------------------------


    POTLOK:  cpu time      0.9897: real time      0.1485
    SETDIJ:  cpu time      0.0014: real time      0.0014
     EDDAV:  cpu time     15.3800: real time      1.9320
       DOS:  cpu time      0.0009: real time      0.0001
    CHARGE:  cpu time      0.6444: real time      0.0823
    MIXING:  cpu time      0.0179: real time      0.0052
    --------------------------------------------
      LOOP:  cpu time     17.0345: real time      2.1696

 eigenvalue-minimisations  :    16
 total energy-change (2. order) :-0.3391631E-01  (-0.5111133E-01)
 number of electron       8.0000037 magnetization 
 augmentation part        0.6966709 magnetization 

 Broyden mixing:
  rms(total) = 0.43521E-01    rms(broyden)= 0.43501E-01
  rms(prec ) = 0.66113E-01
  weight for this iteration     100.00

 Free energy of the ion-electron system (eV)
  ---------------------------------------------------
  alpha Z        PSCENC =         0.87575161
  Ewald energy   TEWEN  =       -17.32905608
  -Hartree energ DENC   =      -379.33815538
  -exchange      EXHF   =         0.00000000
  -V(xc)+E(xc)   XCENC  =        33.97134483
  PAW double counting   =       530.81468255     -532.88373368
  entropy T*S    EENTRO =        -0.00000000
  eigenvalues    EBANDS =      -107.66009551
  atomic energy  EATOM  =       457.33192828
  Solvation  Ediel_sol  =         0.00000000
  ---------------------------------------------------
  free energy    TOTEN  =       -14.21733337 eV

  energy without entropy =      -14.21733337  energy(sigma->0) =      -14.21733337


--------------------------------------------------------------------------------------------------------




--------------------------------------- Iteration      3(   2)  ---------------------------------------


    POTLOK:  cpu time      0.3770: real time      0.0700
    SETDIJ:  cpu time      0.0153: real time      0.0016
     EDDAV:  cpu time     18.2217: real time      2.3062
       DOS:  cpu time      0.0006: real time      0.0001
    CHARGE:  cpu time      0.6284: real time      0.0864
    MIXING:  cpu time      0.0274: real time      0.0053
    --------------------------------------------
      LOOP:  cpu time     19.2704: real time      2.4697

 eigenvalue-minimisations  :    24
 total energy-change (2. order) : 0.3392278E-02  (-0.1985682E-02)
 number of electron       8.0000037 magnetization 
 augmentation part        0.6926713 magnetization 

 Broyden mixing:
  rms(total) = 0.17752E-01    rms(broyden)= 0.17735E-01
  rms(prec ) = 0.22771E-01
  weight for this iteration     100.00

 eigenvalues of (default mixing * dielectric matrix)
  average eigenvalue GAMMA=   1.2470
  1.2470

 Free energy of the ion-electron system (eV)
  ---------------------------------------------------
  alpha Z        PSCENC =         0.87575161
  Ewald energy   TEWEN  =       -17.32905608
  -Hartree energ DENC   =      -380.33704366
  -exchange      EXHF   =         0.00000000
  -V(xc)+E(xc)   XCENC  =        34.02668802
  PAW double counting   =       537.30914760     -539.39685246
  entropy T*S    EENTRO =        -0.00000000
  eigenvalues    EBANDS =      -106.69450439
  atomic energy  EATOM  =       457.33192828
  Solvation  Ediel_sol  =         0.00000000
  ---------------------------------------------------
  free energy    TOTEN  =       -14.21394109 eV

  energy without entropy =      -14.21394109  energy(sigma->0) =      -14.21394109


--------------------------------------------------------------------------------------------------------




--------------------------------------- Iteration      3(   3)  ---------------------------------------


    POTLOK:  cpu time      0.3539: real time      0.0657
    SETDIJ:  cpu time      0.0016: real time      0.0016
     EDDAV:  cpu time     15.8452: real time      1.9911
       DOS:  cpu time      0.0009: real time      0.0001
    CHARGE:  cpu time      0.6202: real time      0.0788
    MIXING:  cpu time      0.0176: real time      0.0055
    --------------------------------------------
      LOOP:  cpu time     16.8394: real time      2.1428

 eigenvalue-minimisations  :    16
 total energy-change (2. order) : 0.1940285E-03  (-0.9618653E-04)
 number of electron       8.0000037 magnetization 
 augmentation part        0.6916121 magnetization 

 Broyden mixing:
  rms(total) = 0.85181E-02    rms(broyden)= 0.85151E-02
  rms(prec ) = 0.10656E-01
  weight for this iteration     100.00

 eigenvalues of (default mixing * dielectric matrix)
  average eigenvalue GAMMA=   1.6070
  1.2696  1.9444

 Free energy of the ion-electron system (eV)
  ---------------------------------------------------
  alpha Z        PSCENC =         0.87575161
  Ewald energy   TEWEN  =       -17.32905608
  -Hartree energ DENC   =      -380.51604143
  -exchange      EXHF   =         0.00000000
  -V(xc)+E(xc)   XCENC  =        34.03604127
  PAW double counting   =       541.10178088     -543.19608278
  entropy T*S    EENTRO =        -0.00000000
  eigenvalues    EBANDS =      -106.51806881
  atomic energy  EATOM  =       457.33192828
  Solvation  Ediel_sol  =         0.00000000
  ---------------------------------------------------
  free energy    TOTEN  =       -14.21374707 eV

  energy without entropy =      -14.21374707  energy(sigma->0) =      -14.21374707


--------------------------------------------------------------------------------------------------------




--------------------------------------- Iteration      3(   4)  ---------------------------------------


    POTLOK:  cpu time      0.3640: real time      0.0659
    SETDIJ:  cpu time      0.0014: real time      0.0014
     EDDAV:  cpu time     22.4472: real time      2.8157
       DOS:  cpu time      0.0009: real time      0.0001
    --------------------------------------------
      LOOP:  cpu time     22.8136: real time      2.8832

 eigenvalue-minimisations  :    24
 total energy-change (2. order) : 0.1550889E-04  (-0.3051479E-04)
 number of electron       8.0000037 magnetization 
 augmentation part        0.6916121 magnetization 

 Free energy of the ion-electron system (eV)
  ---------------------------------------------------
  alpha Z        PSCENC =         0.87575161
  Ewald energy   TEWEN  =       -17.32905608
  -Hartree energ DENC   =      -380.44716220
  -exchange      EXHF   =         0.00000000
  -V(xc)+E(xc)   XCENC  =        34.03204096
  PAW double counting   =       543.89245210     -545.98843763
  entropy T*S    EENTRO =        -0.00000000
  eigenvalues    EBANDS =      -106.58124859
  atomic energy  EATOM  =       457.33192828
  Solvation  Ediel_sol  =         0.00000000
  ---------------------------------------------------
  free energy    TOTEN  =       -14.21373156 eV

  energy without entropy =      -14.21373156  energy(sigma->0) =      -14.21373156


--------------------------------------------------------------------------------------------------------




 average (electrostatic) potential at core
  the test charge radii are     0.7215  0.5201
  (the norm of the test charge is              1.0000)
       1 -80.1768       2 -44.3050       3 -44.3050



 E-fermi :  -6.3400     XC(G=0):  -1.7843     alpha+bet : -0.5081

 Fermi energy:        -6.3400355869

 k-point     1 :       0.0000    0.0000    0.0000
  band No.  band energies     occupation 
      1     -24.8956      2.00000
      2     -12.7070      2.00000
      3      -8.8805      2.00000
      4      -6.8075      2.00000
      5      -1.2697      0.00000
      6       2.0701      0.00000
      7       2.1395      0.00000
      8       2.5442      0.00000


--------------------------------------------------------------------------------------------------------


 soft charge-density along one line, spin component           1
         0         1         2         3         4         5         6         7         8         9
 total charge-density along one line

 pseudopotential strength for first ion, spin component:           1
 13.746 -16.848  -0.000   0.000  -0.120   0.000  -0.000   0.151
-16.848  20.681   0.000  -0.000   0.153  -0.000   0.000  -0.193
 -0.000   0.000 -10.504  -0.000  -0.000  13.011   0.000   0.000
  0.000  -0.000  -0.000 -10.265   0.000   0.000  12.690  -0.000
 -0.120   0.153  -0.000   0.000 -10.407   0.000  -0.000  12.880
  0.000  -0.000  13.011   0.000   0.000 -16.042  -0.000  -0.000
 -0.000   0.000   0.000  12.690  -0.000  -0.000 -15.608   0.000
  0.151  -0.193   0.000  -0.000  12.880  -0.000   0.000 -15.865
 total augmentation occupancy for first ion, spin component:           1
  2.740   0.446   0.000   0.000   0.417   0.000   0.000   0.166
  0.446   0.124   0.000   0.000   0.407   0.000   0.000   0.073
  0.000   0.000   2.404   0.000   0.000   0.463   0.000   0.000
  0.000   0.000   0.000   2.132   0.000   0.000   0.137   0.000
  0.417   0.407   0.000   0.000   2.294   0.000   0.000   0.329
  0.000   0.000   0.463   0.000   0.000   0.089   0.000   0.000
  0.000   0.000   0.000   0.137   0.000   0.000   0.009   0.000
  0.166   0.073   0.000   0.000   0.329   0.000   0.000   0.051


------------------------ aborting loop because EDIFF is reached ----------------------------------------


    CHARGE:  cpu time      0.5929: real time      0.0755
    FORLOC:  cpu time      0.0254: real time      0.0029
    FORNL :  cpu time      0.0244: real time      0.0044
    STRESS:  cpu time      2.7213: real time      0.3631
    FORCOR:  cpu time      0.3652: real time      0.0665
    FORHAR:  cpu time      0.0801: real time      0.0265
    MIXING:  cpu time      0.0474: real time      0.0052
    OFIELD:  cpu time      0.0000: real time      0.0000

  FORCE on cell =-STRESS in cart. coord.  units (eV):
  Direction    XX          YY          ZZ          XY          YZ          ZX
  --------------------------------------------------------------------------------------
  Alpha Z     0.87575     0.87575     0.87575
  Ewald      -1.71537    53.78356   -69.39730    -0.00000     0.00000     0.00000
  Hartree   127.79508   137.59673   115.20169    -0.00000    -0.00000    -0.00000
  E(xc)     -36.13278   -35.93332   -36.42652     0.00000    -0.00000    -0.00000
  Local    -215.50442  -265.54649  -155.71732    -0.00000    -0.00000     0.00000
  n-local   -31.01800   -30.20483   -30.88094    -0.00000    -0.00000    -0.00000
  augment     6.76237     5.78983     8.18502     0.00000     0.00000    -0.00000
  Kinetic   148.89802   133.54561   168.27355    -0.00000    -0.00000    -0.00000
  Fock        0.00000     0.00000     0.00000     0.00000     0.00000     0.00000
  -------------------------------------------------------------------------------------
  Total      -0.03935    -0.09316     0.11393     0.00000     0.00000     0.00000
  in kB      -0.24618    -0.58288     0.71285     0.00000     0.00000     0.00000
  external pressure =       -0.04 kB  Pullay stress =        0.00 kB


 VOLUME and BASIS-vectors are now :
 -----------------------------------------------------------------------------
  energy-cutoff  :      520.00
  volume of cell :      256.07
      direct lattice vectors                 reciprocal lattice vectors
     6.350160000  0.000000000  0.000000000     0.157476347  0.000000000  0.000000000
     0.000000000  6.350160000  0.000000000     0.000000000  0.157476347  0.000000000
     0.000000000  0.000000000  6.350160000     0.000000000  0.000000000  0.157476347

  length of vectors
     6.350160000  6.350160000  6.350160000     0.157476347  0.157476347  0.157476347


 FORCES acting on ions
    electron-ion (+dipol)            ewald-force                    non-local-force                 convergence-correction
 -----------------------------------------------------------------------------------------------
   0.612E+02 -.135E-16 -.323E-15   -.110E+03 -.142E-13 0.949E-16   0.488E+02 -.230E-25 0.608E-25   0.291E-01 0.348E-13 0.242E-14
   -.502E+02 0.701E+02 0.160E-06   0.550E+02 -.767E+02 0.768E-18   -.485E+01 0.673E+01 0.170E-27   0.102E-01 -.873E-02 -.196E-16
   -.502E+02 -.701E+02 -.262E-06   0.550E+02 0.767E+02 -.743E-18   -.485E+01 -.673E+01 -.249E-27   0.102E-01 0.873E-02 -.182E-14
 -----------------------------------------------------------------------------------------------
   -.391E+02 -.142E-13 -.102E-06   0.000E+00 0.142E-13 0.949E-16   0.391E+02 -.888E-15 0.607E-25   0.494E-01 0.366E-13 0.581E-15


 POSITION                                       TOTAL-FORCE (eV/Angst)
 -----------------------------------------------------------------------------------
      0.00000      0.00000      0.00000         0.035360      0.000000      0.000000
      0.59530      5.58036      0.00000        -0.017680      0.086968      0.000000
      0.59530      0.76980      0.00000        -0.017680     -0.086968     -0.000000
 -----------------------------------------------------------------------------------
    total drift:                               -0.013291      0.000000     -0.000000


--------------------------------------------------------------------------------------------------------



  FREE ENERGIE OF THE ION-ELECTRON SYSTEM (eV)
  ---------------------------------------------------
  free  energy   TOTEN  =       -14.21373156 eV

  energy  without entropy=      -14.21373156  energy(sigma->0) =      -14.21373156

 d Force = 0.2945969E-01[ 0.401E-02, 0.549E-01]  d Energy = 0.3033502E-01-0.875E-03
 d Force =-0.4393473E+01[-0.450E+01,-0.428E+01]  d Ewald  =-0.4392184E+01-0.129E-02


--------------------------------------------------------------------------------------------------------


    POTLOK:  cpu time      0.3745: real time      0.0709


--------------------------------------------------------------------------------------------------------


 Quasi-Newton relaxation of ions (Broydens 2nd method)
  g(Force)  = 0.760E-03   g(Stress)= 0.000E+00

 retain information from N=  1 steps
 eigenvalues of (default step * inverse Hessian matrix)
  average eigenvalue of G=   0.4659
 eigenvalue spectrum of G is  0.4659


--------------------------------------------------------------------------------------------------------


    WAVPRE:  cpu time      0.1009: real time      0.0471
    FEWALD:  cpu time      0.0010: real time      0.0010
    ORTHCH:  cpu time      0.3287: real time      0.0389
     LOOP+:  cpu time     80.6331: real time     10.3702


--------------------------------------- Ionic step        4  -------------------------------------------




--------------------------------------- Iteration      4(   1)  ---------------------------------------


    POTLOK:  cpu time      0.9373: real time      0.1406
    SETDIJ:  cpu time      0.0235: real time      0.0019
     EDDAV:  cpu time     17.1396: real time      2.1488
       DOS:  cpu time      0.0008: real time      0.0002
    CHARGE:  cpu time      0.6655: real time      0.0881
    MIXING:  cpu time      0.0258: real time      0.0052
    --------------------------------------------
      LOOP:  cpu time     18.7925: real time      2.3848

 eigenvalue-minimisations  :    16
 total energy-change (2. order) :-0.1752722E-03  (-0.4098431E-03)
 number of electron       8.0000037 magnetization 
 augmentation part        0.6927708 magnetization 

 Broyden mixing:
  rms(total) = 0.31000E-02    rms(broyden)= 0.30973E-02
  rms(prec ) = 0.45681E-02
  weight for this iteration     100.00

 Free energy of the ion-electron system (eV)
  ---------------------------------------------------
  alpha Z        PSCENC =         0.87575161
  Ewald energy   TEWEN  =       -16.99408207
  -Hartree energ DENC   =      -380.68128716
  -exchange      EXHF   =         0.00000000
  -V(xc)+E(xc)   XCENC  =        34.04414368
  PAW double counting   =       544.68752423     -546.78556944
  entropy T*S    EENTRO =        -0.00000000
  eigenvalues    EBANDS =      -106.69233146
  atomic energy  EATOM  =       457.33192828
  Solvation  Ediel_sol  =         0.00000000
  ---------------------------------------------------
  free energy    TOTEN  =       -14.21392234 eV

  energy without entropy =      -14.21392234  energy(sigma->0) =      -14.21392234


--------------------------------------------------------------------------------------------------------




--------------------------------------- Iteration      4(   2)  ---------------------------------------


    POTLOK:  cpu time      0.3556: real time      0.0661
    SETDIJ:  cpu time      0.0016: real time      0.0016
     EDDAV:  cpu time     25.2558: real time      3.1883
       DOS:  cpu time      0.0009: real time      0.0001
    --------------------------------------------
      LOOP:  cpu time     25.6139: real time      3.2561

 eigenvalue-minimisations  :    32
 total energy-change (2. order) : 0.3852933E-05  (-0.1060588E-04)
 number of electron       8.0000037 magnetization 
 augmentation part        0.6927708 magnetization 

 Free energy of the ion-electron system (eV)
  ---------------------------------------------------
  alpha Z        PSCENC =         0.87575161
  Ewald energy   TEWEN  =       -16.99408207
  -Hartree energ DENC   =      -380.73983107
  -exchange      EXHF   =         0.00000000
  -V(xc)+E(xc)   XCENC  =        34.04740887
  PAW double counting   =       545.18255246     -547.28139109
  entropy T*S    EENTRO =        -0.00000000
  eigenvalues    EBANDS =      -106.63625547
  atomic energy  EATOM  =       457.33192828
  Solvation  Ediel_sol  =         0.00000000
  ---------------------------------------------------
  free energy    TOTEN  =       -14.21391848 eV

  energy without entropy =      -14.21391848  energy(sigma->0) =      -14.21391848


--------------------------------------------------------------------------------------------------------




 average (electrostatic) potential at core
  the test charge radii are     0.7215  0.5201
  (the norm of the test charge is              1.0000)
       1 -80.1694       2 -44.3295       3 -44.3295



 E-fermi :  -6.3439     XC(G=0):  -1.7786     alpha+bet : -0.5081

 Fermi energy:        -6.3439316198

 k-point     1 :       0.0000    0.0000    0.0000
  band No.  band energies     occupation 
      1     -24.9145      2.00000
      2     -12.7093      2.00000
      3      -8.8872      2.00000
      4      -6.8071      2.00000
      5      -1.2622      0.00000
      6       2.0743      0.00000
      7       2.1475      0.00000
      8       2.5475      0.00000


--------------------------------------------------------------------------------------------------------


 soft charge-density along one line, spin component           1
         0         1         2         3         4         5         6         7         8         9
 total charge-density along one line

 pseudopotential strength for first ion, spin component:           1
 13.745 -16.847  -0.000  -0.000  -0.121   0.000   0.000   0.152
-16.847  20.678   0.000   0.000   0.154  -0.000  -0.000  -0.194
 -0.000   0.000 -10.502  -0.000  -0.000  13.008   0.000   0.000
 -0.000   0.000  -0.000 -10.263  -0.000   0.000  12.687   0.000
 -0.121   0.154  -0.000  -0.000 -10.405   0.000   0.000  12.878
  0.000  -0.000  13.008   0.000   0.000 -16.037  -0.000  -0.000
  0.000  -0.000   0.000  12.687   0.000  -0.000 -15.604  -0.000
  0.152  -0.194   0.000   0.000  12.878  -0.000  -0.000 -15.862
 total augmentation occupancy for first ion, spin component:           1
  2.740   0.446   0.000   0.000   0.423   0.000   0.000   0.168
  0.446   0.125   0.000   0.000   0.411   0.000   0.000   0.074
  0.000   0.000   2.407   0.000   0.000   0.463   0.000   0.000
  0.000   0.000   0.000   2.132   0.000   0.000   0.137   0.000
  0.423   0.411   0.000   0.000   2.297   0.000   0.000   0.330
  0.000   0.000   0.463   0.000   0.000   0.089   0.000   0.000
  0.000   0.000   0.000   0.137   0.000   0.000   0.009   0.000
  0.168   0.074   0.000   0.000   0.330   0.000   0.000   0.052


------------------------ aborting loop because EDIFF is reached ----------------------------------------


    CHARGE:  cpu time      0.6282: real time      0.0808
    FORLOC:  cpu time      0.0309: real time      0.0029
    FORNL :  cpu time      0.0214: real time      0.0042
    STRESS:  cpu time      2.5408: real time      0.3388
    FORCOR:  cpu time      0.3601: real time      0.0666
    FORHAR:  cpu time      0.0884: real time      0.0268
    MIXING:  cpu time      0.0325: real time      0.0048
    OFIELD:  cpu time      0.0000: real time      0.0000

  FORCE on cell =-STRESS in cart. coord.  units (eV):
  Direction    XX          YY          ZZ          XY          YZ          ZX
  --------------------------------------------------------------------------------------
  Alpha Z     0.87575     0.87575     0.87575
  Ewald      -1.28426    53.68471   -69.39458    -0.00000     0.00000    -0.00000
  Hartree   127.91274   137.57709   115.26201    -0.00000    -0.00000    -0.00000
  E(xc)     -36.14724   -35.95140   -36.44285     0.00000    -0.00000     0.00000
  Local    -215.96316  -265.42688  -155.83749     0.00000     0.00000    -0.00000
  n-local   -31.05780   -30.23378   -30.89675     0.00000     0.00000    -0.00000
  augment     6.75590     5.78954     8.18321    -0.00000    -0.00000    -0.00000
  Kinetic   148.86952   133.67384   168.30830     0.00000     0.00000    -0.00000
  Fock        0.00000     0.00000     0.00000     0.00000     0.00000     0.00000
  -------------------------------------------------------------------------------------
  Total      -0.03855    -0.01114     0.05759     0.00000     0.00000     0.00000
  in kB      -0.24120    -0.06969     0.36036     0.00000     0.00000     0.00000
  external pressure =        0.02 kB  Pullay stress =        0.00 kB


 VOLUME and BASIS-vectors are now :
 -----------------------------------------------------------------------------
  energy-cutoff  :      520.00
  volume of cell :      256.07
      direct lattice vectors                 reciprocal lattice vectors
     6.350160000  0.000000000  0.000000000     0.157476347  0.000000000  0.000000000
     0.000000000  6.350160000  0.000000000     0.000000000  0.157476347  0.000000000
     0.000000000  0.000000000  6.350160000     0.000000000  0.000000000  0.157476347

  length of vectors
     6.350160000  6.350160000  6.350160000     0.157476347  0.157476347  0.157476347


 FORCES acting on ions
    electron-ion (+dipol)            ewald-force                    non-local-force                 convergence-correction
 -----------------------------------------------------------------------------------------------
   0.617E+02 0.448E-15 -.861E-15   -.111E+03 0.000E+00 0.765E-16   0.489E+02 -.907E-26 0.612E-25   -.400E-01 -.411E-14 0.111E-12
   -.504E+02 0.702E+02 0.156E-06   0.553E+02 -.769E+02 0.877E-17   -.489E+01 0.676E+01 -.445E-26   0.112E-02 -.300E-02 0.990E-14
   -.504E+02 -.702E+02 -.254E-06   0.553E+02 0.769E+02 0.960E-17   -.489E+01 -.676E+01 0.232E-26   0.112E-02 0.300E-02 0.609E-14
 -----------------------------------------------------------------------------------------------
   -.391E+02 -.426E-13 -.979E-07   0.000E+00 0.000E+00 0.949E-16   0.391E+02 0.000E+00 0.590E-25   -.378E-01 -.506E-14 0.127E-12


 POSITION                                       TOTAL-FORCE (eV/Angst)
 -----------------------------------------------------------------------------------
      0.00000      0.00000      0.00000        -0.039221      0.000000      0.000000
      0.59564      5.58279      0.00000         0.019611     -0.001292     -0.000000
      0.59564      0.76737      0.00000         0.019611      0.001292      0.000000
 -----------------------------------------------------------------------------------
    total drift:                               -0.000428     -0.000000     -0.000000


--------------------------------------------------------------------------------------------------------



  FREE ENERGIE OF THE ION-ELECTRON SYSTEM (eV)
  ---------------------------------------------------
  free  energy   TOTEN  =       -14.21391848 eV

  energy  without entropy=      -14.21391848  energy(sigma->0) =      -14.21391848

 d Force = 0.2081705E-03[ 0.696E-05, 0.409E-03]  d Energy = 0.1869281E-03 0.212E-04
 d Force =-0.3349739E+00[-0.335E+00,-0.335E+00]  d Ewald  =-0.3349740E+00 0.134E-06


--------------------------------------------------------------------------------------------------------


    POTLOK:  cpu time      0.3909: real time      0.0707


--------------------------------------------------------------------------------------------------------


 Quasi-Newton relaxation of ions (Broydens 2nd method)
  g(Force)  = 0.373E-04   g(Stress)= 0.000E+00

 retain information from N=  2 steps
 eigenvalues of (default step * inverse Hessian matrix)
  average eigenvalue of G=  20.0224
 eigenvalue spectrum of G is  0.4680 39.5767


--------------------------------------------------------------------------------------------------------


  
 reached required accuracy - stopping structural energy minimisation
 writing wavefunctions
     LOOP+:  cpu time     48.5179: real time      6.2406
    4ORBIT:  cpu time      0.0000: real time      0.0000

 total amount of memory used by VASP MPI-rank0    67321. kBytes
=======================================================================

   base      :      30000. kBytes
   nonl-proj :        610. kBytes
   fftplans  :      13060. kBytes
   grid      :      23203. kBytes
   one-center:          4. kBytes
   wavefun   :        444. kBytes

  
  
 General timing and accounting informations for this job:
 ========================================================
  
                  Total CPU time used (sec):      525.476
                            User time (sec):      378.656
                          System time (sec):      146.820
                         Elapsed time (sec):       69.111
  
                   Maximum memory used (kb):      130192.
                   Average memory used (kb):          N/A
  
                          Minor page faults:       132861
                          Major page faults:            1
                 Voluntary context switches:       115664
