<?xml version="1.0" encoding="ISO-8859-1"?>
<modeling>
 <generator>
  <i name="program" type="string">vasp </i>
  <i name="version" type="string">6.4.2  </i>
  <i name="subversion" type="string">20Jul23 (build Nov 21 2024 16:34:56) gamma-only                       parallel </i>
  <i name="platform" type="string">LinuxGNU </i>
  <i name="date" type="string">2025 03 20 </i>
  <i name="time" type="string">11:38:55 </i>
 </generator>
 <incar>
  <i type="int" name="IBRION">     0</i>
  <i type="int" name="NFREE">     2</i>
  <i name="EDIFFG">     -0.02000000</i>
  <i type="int" name="NSW">    10</i>
  <i name="ENCUT">    520.00000000</i>
  <i name="POTIM">      0.01500000</i>
  <i type="int" name="ISMEAR">     0</i>
  <i name="SIGMA">      0.10000000</i>
 </incar>
 <primitive_cell>
  <structure name="primitive_cell" >
   <crystal>
    <varray name="basis" >
     <v>       6.35016000       0.00000000       0.00000000 </v>
     <v>       0.00000000       6.35016000       0.00000000 </v>
     <v>       0.00000000       0.00000000       6.35016000 </v>
    </varray>
    <i name="volume">    256.06723029 </i>
    <varray name="rec_basis" >
     <v>       0.15747635       0.00000000       0.00000000 </v>
     <v>       0.00000000       0.15747635       0.00000000 </v>
     <v>       0.00000000       0.00000000       0.15747635 </v>
    </varray>
   </crystal>
   <varray name="positions" >
    <v>       0.00000000       0.00000000       0.00000000 </v>
    <v>       0.09166667       0.88083333       0.00000000 </v>
    <v>       0.09166667       0.11916667       0.00000000 </v>
   </varray>
  </structure>
  <varray name="primitive_index" >
   <v type="int" >        1 </v>
   <v type="int" >        2 </v>
   <v type="int" >        3 </v>
  </varray>
 </primitive_cell>
 <kpoints>
  <generation param="Monkhorst-Pack">
   <v type="int" name="divisions">       1        1        1 </v>
   <v name="usershift">      0.00000000       0.00000000       0.00000000 </v>
   <v name="genvec1">      1.00000000       0.00000000       0.00000000 </v>
   <v name="genvec2">      0.00000000       1.00000000       0.00000000 </v>
   <v name="genvec3">      0.00000000       0.00000000       1.00000000 </v>
   <v name="shift">      0.00000000       0.00000000       0.00000000 </v>
  </generation>
  <varray name="kpointlist" >
   <v>       0.00000000       0.00000000       0.00000000 </v>
  </varray>
  <varray name="weights" >
   <v>       1.00000000 </v>
  </varray>
 </kpoints>
 <parameters>
  <separator name="general" >
   <i type="string" name="SYSTEM">unknown system</i>
   <i type="logical" name="LCOMPAT"> F  </i>
  </separator>
  <separator name="electronic" >
   <i type="string" name="PREC">normal</i>
   <i name="ENMAX">    520.00000000</i>
   <i name="ENAUG">    605.39200000</i>
   <i name="EDIFF">      0.00010000</i>
   <i type="int" name="IALGO">    38</i>
   <i type="int" name="IWAVPR">    12</i>
   <i type="int" name="NBANDS">     8</i>
   <i type="int" name="NBANDSLOW">    -1</i>
   <i type="int" name="NBANDSHIGH">    -1</i>
   <i name="NELECT">      8.00000000</i>
   <i type="int" name="TURBO">     0</i>
   <i type="int" name="IRESTART">     0</i>
   <i type="int" name="NREBOOT">     0</i>
   <i type="int" name="NMIN">     0</i>
   <i name="EREF">      0.00000000</i>
   <separator name="electronic smearing" >
    <i type="int" name="ISMEAR">     0</i>
    <i name="SIGMA">      0.10000000</i>
    <i name="KSPACING">      0.50000000</i>
    <i type="logical" name="KGAMMA"> T  </i>
    <i type="logical" name="KBLOWUP"> T  </i>
   </separator>
   <separator name="electronic projectors" >
    <i type="logical" name="LREAL"> F  </i>
    <v name="ROPT">      0.00000000      0.00000000</v>
    <i type="int" name="LMAXPAW">  -100</i>
    <i type="int" name="LMAXMIX">     2</i>
    <i type="logical" name="NLSPLINE"> F  </i>
   </separator>
   <separator name="electronic startup" >
    <i type="int" name="ISTART">     0</i>
    <i type="int" name="ICHARG">     2</i>
    <i type="int" name="INIWAV">     1</i>
   </separator>
   <separator name="electronic spin" >
    <i type="int" name="ISPIN">     1</i>
    <i type="logical" name="LNONCOLLINEAR"> F  </i>
    <v name="MAGMOM">      1.00000000      1.00000000      1.00000000</v>
    <i name="NUPDOWN">     -1.00000000</i>
    <i type="logical" name="LSORBIT"> F  </i>
    <v name="SAXIS">      0.00000000      0.00000000      1.00000000</v>
    <i type="logical" name="LSPIRAL"> F  </i>
    <v name="QSPIRAL">      0.00000000      0.00000000      0.00000000</v>
    <i type="logical" name="LZEROZ"> F  </i>
   </separator>
   <separator name="electronic exchange-correlation" >
    <i type="logical" name="LASPH"> F  </i>
    <i type="logical" name="LMETAGGA"> F  </i>
   </separator>
   <separator name="electronic convergence" >
    <i type="int" name="NELM">    60</i>
    <i type="int" name="NELMDL">     0</i>
    <i type="int" name="NELMIN">     2</i>
    <i name="ENINI">    520.00000000</i>
    <separator name="electronic convergence detail" >
     <i type="logical" name="LDIAG"> T  </i>
     <i type="logical" name="LSUBROT"> F  </i>
     <i name="WEIMIN">      0.00100000</i>
     <i name="EBREAK">      0.00000313</i>
     <i name="DEPER">      0.30000000</i>
     <i type="int" name="NRMM">     4</i>
     <i name="TIME">      0.40000000</i>
    </separator>
   </separator>
   <separator name="electronic mixer" >
    <i name="AMIX">      0.40000000</i>
    <i name="BMIX">      1.00000000</i>
    <i name="AMIN">      0.10000000</i>
    <i name="AMIX_MAG">      1.60000000</i>
    <i name="BMIX_MAG">      1.00000000</i>
    <separator name="electronic mixer details" >
     <i type="int" name="IMIX">     4</i>
     <i type="logical" name="MIXFIRST"> F  </i>
     <i type="int" name="MAXMIX">   -45</i>
     <i name="WC">    100.00000000</i>
     <i type="int" name="INIMIX">     1</i>
     <i type="int" name="MIXPRE">     1</i>
     <i type="int" name="MREMOVE">     5</i>
    </separator>
   </separator>
   <separator name="electronic dipolcorrection" >
    <i type="logical" name="LDIPOL"> F  </i>
    <i type="logical" name="LMONO"> F  </i>
    <i type="int" name="IDIPOL">     0</i>
    <i name="EPSILON">      1.00000000</i>
    <v name="DIPOL">   -100.00000000   -100.00000000   -100.00000000</v>
    <i name="EFIELD">      0.00000000</i>
   </separator>
  </separator>
  <separator name="grids" >
   <i type="int" name="NGX">    36</i>
   <i type="int" name="NGY">    36</i>
   <i type="int" name="NGZ">    36</i>
   <i type="int" name="NGXF">    72</i>
   <i type="int" name="NGYF">    72</i>
   <i type="int" name="NGZF">    72</i>
   <i type="logical" name="ADDGRID"> F  </i>
  </separator>
  <separator name="ionic" >
   <i type="int" name="NSW">    10</i>
   <i type="int" name="IBRION">     0</i>
   <i type="int" name="MDALGO">     0</i>
   <i type="int" name="ISIF">     0</i>
   <i name="PSTRESS">      0.00000000</i>
   <i name="EDIFFG">     -0.02000000</i>
   <i type="int" name="NFREE">     2</i>
   <i name="POTIM">      0.01500000</i>
   <i name="SMASS">     -3.00000000</i>
   <i name="SCALEE">      1.00000000</i>
  </separator>
  <separator name="ionic md" >
   <i name="TEBEG">      0.00010000</i>
   <i name="TEEND">      0.00010000</i>
   <i type="int" name="NBLOCK">     1</i>
   <i type="int" name="KBLOCK">    10</i>
   <i type="int" name="NPACO">   256</i>
   <i name="APACO">     10.00000000</i>
  </separator>
  <separator name="symmetry" >
   <i type="int" name="ISYM">     2</i>
   <i name="SYMPREC">      0.00001000</i>
  </separator>
  <separator name="dos" >
   <i type="int" name="LORBIT">     0</i>
   <v name="RWIGS">     -1.00000000     -1.00000000</v>
   <i type="int" name="NEDOS">   301</i>
   <i name="EMIN">     10.00000000</i>
   <i name="EMAX">    -10.00000000</i>
   <i name="EFERMI">      0.00000000</i>
  </separator>
  <separator name="writing" >
   <i type="int" name="NWRITE">     2</i>
   <i type="logical" name="LWAVE"> T  </i>
   <i type="logical" name="LDOWNSAMPLE"> F  </i>
   <i type="logical" name="LCHARG"> T  </i>
   <i type="logical" name="LPARD"> F  </i>
   <i type="logical" name="LVTOT"> F  </i>
   <i type="logical" name="LVHAR"> F  </i>
   <i type="logical" name="LELF"> F  </i>
   <i type="logical" name="LOPTICS"> F  </i>
   <v name="STM">      0.00000000      0.00000000      0.00000000      0.00000000      0.00000000      0.00000000      0.00000000</v>
  </separator>
  <separator name="performance" >
   <i type="int" name="NPAR">     1</i>
   <i type="int" name="NSIM">     4</i>
   <i type="int" name="NBLK">    -1</i>
   <i type="logical" name="LPLANE"> T  </i>
   <i type="logical" name="LSCALAPACK"> T  </i>
   <i type="logical" name="LSCAAWARE"> F  </i>
   <i type="logical" name="LSCALU"> F  </i>
   <i type="logical" name="LASYNC"> F  </i>
   <i type="logical" name="LORBITALREAL"> F  </i>
  </separator>
  <separator name="miscellaneous" >
   <i type="int" name="IDIOT">     3</i>
   <i type="int" name="PHON_NSTRUCT">    -1</i>
   <i type="logical" name="LMUSIC"> F  </i>
   <v name="POMASS">     16.00000000      1.00000000</v>
   <v name="DARWINR">      0.00000000      0.00000000</v>
   <v name="DARWINV">      1.00000000      1.00000000</v>
   <i type="logical" name="LCORR"> T  </i>
  </separator>
  <i type="logical" name="GGA_COMPAT"> T  </i>
  <i type="logical" name="LBERRY"> F  </i>
  <i type="int" name="ICORELEVEL">     0</i>
  <i type="logical" name="LDAU"> F  </i>
  <i type="int" name="I_CONSTRAINED_M">     0</i>
  <separator name="electronic exchange-correlation" >
   <i type="string" name="GGA">--</i>
   <i type="int" name="VOSKOWN">     0</i>
   <i type="logical" name="LHFCALC"> F  </i>
   <i type="string" name="PRECFOCK"></i>
   <i type="logical" name="LSYMGRAD"> F  </i>
   <i type="logical" name="LHFONE"> F  </i>
   <i type="logical" name="LRHFCALC"> F  </i>
   <i type="logical" name="LTHOMAS"> F  </i>
   <i type="logical" name="LMODELHF"> F  </i>
   <i type="logical" name="LFOCKACE"> F  </i>
   <i name="ENCUT4O">     -1.00000000</i>
   <i type="int" name="EXXOEP">     0</i>
   <i type="int" name="FOURORBIT">     0</i>
   <i name="AEXX">      0.00000000</i>
   <i name="HFALPHA">      0.00000000</i>
   <i name="MCALPHA">      0.00000000</i>
   <i name="ALDAX">      1.00000000</i>
   <i name="AGGAX">      1.00000000</i>
   <i name="ALDAC">      1.00000000</i>
   <i name="AGGAC">      1.00000000</i>
   <i type="int" name="NKREDX">     1</i>
   <i type="int" name="NKREDY">     1</i>
   <i type="int" name="NKREDZ">     1</i>
   <i type="logical" name="SHIFTRED"> F  </i>
   <i type="logical" name="ODDONLY"> F  </i>
   <i type="logical" name="EVENONLY"> F  </i>
   <i type="int" name="LMAXFOCK">     0</i>
   <i type="int" name="NMAXFOCKAE">     0</i>
   <i type="logical" name="LFOCKAEDFT"> F  </i>
   <i name="HFSCREEN">      0.00000000</i>
   <i name="HFSCREENC">      0.00000000</i>
   <i type="int" name="NBANDSGWLOW">     0</i>
  </separator>
  <separator name="vdW DFT" >
   <i type="logical" name="LUSE_VDW"> F  </i>
   <i type="int" name="IVDW_NL">     1</i>
   <i type="logical" name="LSPIN_VDW"> F  </i>
   <i name="Zab_VDW">     -0.84910000</i>
   <i name="PARAM1">      0.12340000</i>
   <i name="PARAM2">      1.00000000</i>
   <i name="PARAM3">      0.00000000</i>
  </separator>
  <separator name="model GW" >
   <i type="int" name="MODEL_GW">     0</i>
   <i name="MODEL_EPS0">     51.21344606</i>
   <i name="MODEL_ALPHA">      1.00000000</i>
  </separator>
  <separator name="linear response parameters" >
   <i type="logical" name="LEPSILON"> F  </i>
   <i type="logical" name="LRPA"> F  </i>
   <i type="logical" name="LNABLA"> F  </i>
   <i type="logical" name="LVEL"> F  </i>
   <i name="CSHIFT">      0.10000000</i>
   <i name="OMEGAMAX">     -1.00000000</i>
   <i name="DEG_THRESHOLD">      0.00200000</i>
   <i name="RTIME">     -0.10000000</i>
   <i name="WPLASMAI">      0.00000000</i>
   <v name="DFIELD">      0.00000000      0.00000000      0.00000000</v>
   <v name="WPLASMA">      0.00000000      0.00000000      0.00000000      0.00000000      0.00000000      0.00000000      0.00000000      0.00000000      0.00000000</v>
  </separator>
  <separator name="orbital magnetization" >
   <i type="logical" name="NUCIND"> F  </i>
   <v name="MAGPOS">      0.00000000      0.00000000      0.00000000</v>
   <i type="logical" name="LNICSALL"> T  </i>
   <i type="logical" name="ORBITALMAG"> F  </i>
   <i type="logical" name="LMAGBLOCH"> F  </i>
   <i type="logical" name="LCHIMAG"> F  </i>
   <i type="logical" name="LGAUGE"> T  </i>
   <i type="int" name="MAGATOM">     0</i>
   <v name="MAGDIPOL">      0.00000000      0.00000000      0.00000000</v>
   <v name="AVECCONST">      0.00000000      0.00000000      0.00000000</v>
  </separator>
  <separator name="response functions" >
   <i type="logical" name="LALL_IN_ONE"> F  </i>
   <i type="int" name="IALL_IN_ONE">    -1</i>
   <i type="int" name="NBANDS_WAVE">    -1</i>
   <i type="logical" name="LFINITE_TEMPERATURE"> F  </i>
   <i type="logical" name="LADDER"> F  </i>
   <i type="logical" name="LRPAFORCE"> F  </i>
   <i type="logical" name="LFXC"> F  </i>
   <i type="logical" name="LHARTREE"> T  </i>
   <i type="int" name="IBSE">     0</i>
   <v type="int" name="KPOINT">    -1     0     0     0</v>
   <i type="logical" name="LTCTC"> F  </i>
   <i type="logical" name="LTCTE"> F  </i>
   <i type="logical" name="LTETE"> F  </i>
   <i type="logical" name="LTRIPLET"> F  </i>
   <i type="logical" name="LFXCEPS"> F  </i>
   <i type="logical" name="LFXHEG"> F  </i>
   <i type="int" name="NATURALO">     2</i>
   <i type="logical" name="LHOLEGF"> F  </i>
   <i type="logical" name="L2ORDER"> F  </i>
   <i type="logical" name="LDMP1"> F  </i>
   <i type="logical" name="LMP2LT"> F  </i>
   <i type="logical" name="LSMP2LT"> F  </i>
   <i type="logical" name="LGWLF"> F  </i>
   <i name="ENCUTGW">     -1.60000002</i>
   <i name="ENCUTGWSOFT">     -1.60000002</i>
   <i name="ENCUTLF">     -1.00000000</i>
   <i type="logical" name="LESF_SPLINES"> F  </i>
   <i type="int" name="LMAXMP2">    -1</i>
   <i name="SCISSOR">      0.00000000</i>
   <i type="int" name="NOMEGA">     0</i>
   <i type="int" name="NOMEGAR">     0</i>
   <i type="int" name="NBANDSGW">    -1</i>
   <i type="int" name="NBANDSO">    -1</i>
   <i type="int" name="NBANDSV">    -1</i>
   <i type="int" name="NELMGW">     1</i>
   <i type="int" name="NELMHF">     1</i>
   <i type="int" name="DIM">     3</i>
   <i type="int" name="IESPILON">     4</i>
   <i type="int" name="ANTIRES">     0</i>
   <i name="OMEGAMAX">    -30.00000000</i>
   <i name="OMEGAMIN">    -30.00000000</i>
   <i name="OMEGATL">   -200.00000000</i>
   <i type="int" name="OMEGAGRID">     0</i>
   <i name="CSHIFT">     -0.10000000</i>
   <i type="logical" name="LSELFENERGY"> F  </i>
   <i type="logical" name="LSPECTRAL"> F  </i>
   <i type="logical" name="LSPECTRALGW"> F  </i>
   <i type="logical" name="LSINGLES"> F  </i>
   <i type="logical" name="LFERMIGW"> F  </i>
   <i type="logical" name="ODDONLYGW"> F  </i>
   <i type="logical" name="EVENONLYGW"> F  </i>
   <i type="int" name="NKREDLFX">     1</i>
   <i type="int" name="NKREDLFY">     1</i>
   <i type="int" name="NKREDLFZ">     1</i>
   <i type="int" name="MAXMEM">  2800</i>
   <i type="int" name="TELESCOPE">     0</i>
   <i type="int" name="NTAUPAR">    -1</i>
   <i type="int" name="NOMEGAPAR">    -1</i>
   <i name="DAMP_NEWTON">      0.80000001</i>
   <i name="LAMBDA">      1.00000000</i>
  </separator>
  <separator name="External order field" >
   <i name="OFIELD_KAPPA">      0.00000000</i>
   <v name="OFIELD_K">      0.00000000      0.00000000      0.00000000</v>
   <i name="OFIELD_Q6_NEAR">      0.00000000</i>
   <i name="OFIELD_Q6_FAR">      0.00000000</i>
   <i name="OFIELD_A">      0.00000000</i>
  </separator>
  <separator name="optional k-points parameters" >
   <i type="int" name="KPOINTS_OPT_MODE">     1</i>
   <i type="logical" name="LKPOINTS_OPT"> F  </i>
  </separator>
 </parameters>
 <atominfo>
  <atoms>       3 </atoms>
  <types>       2 </types>
  <array name="atoms" >
   <dimension dim="1">ion</dimension>
   <field type="string">element</field>
   <field type="int">atomtype</field>
   <set>
    <rc><c>O </c><c>   1</c></rc>
    <rc><c>H </c><c>   2</c></rc>
    <rc><c>H </c><c>   2</c></rc>
   </set>
  </array>
  <array name="atomtypes" >
   <dimension dim="1">type</dimension>
   <field type="int">atomspertype</field>
   <field type="string">element</field>
   <field>mass</field>
   <field>valence</field>
   <field type="string">pseudopotential</field>
   <set>
    <rc><c>   1</c><c>O </c><c>     16.00000000</c><c>      6.00000000</c><c>  PAW_PBE O 08Apr2002                   </c></rc>
    <rc><c>   2</c><c>H </c><c>      1.00000000</c><c>      1.00000000</c><c>  PAW_PBE H 15Jun2001                   </c></rc>
   </set>
  </array>
 </atominfo>
 <structure name="initialpos" >
  <crystal>
   <varray name="basis" >
    <v>       6.35016000       0.00000000       0.00000000 </v>
    <v>       0.00000000       6.35016000       0.00000000 </v>
    <v>       0.00000000       0.00000000       6.35016000 </v>
   </varray>
   <i name="volume">    256.06723029 </i>
   <varray name="rec_basis" >
    <v>       0.15747635       0.00000000       0.00000000 </v>
    <v>       0.00000000       0.15747635       0.00000000 </v>
    <v>       0.00000000       0.00000000       0.15747635 </v>
   </varray>
  </crystal>
  <varray name="positions" >
   <v>       0.00000000       0.00000000       0.00000000 </v>
   <v>       0.09166667       0.88083333       0.00000000 </v>
   <v>       0.09166667       0.11916667       0.00000000 </v>
  </varray>
  <varray name="selective"  type="logical" >
   <v type="logical" >  F  F  F </v>
   <v type="logical" >  T  T  F </v>
   <v type="logical" >  T  T  F </v>
  </varray>
  <varray name="velocities" >
   <v>       0.00000000       0.00000000       0.00000000 </v>
   <v>       0.00000001      -0.00000000       0.00000000 </v>
   <v>      -0.00000002       0.00000003       0.00000000 </v>
  </varray>
  <nose>
   <v>      -3.00000000       0.00000000       0.00010000       0.00010000 </v>
  </nose>
 </structure>
 <calculation>
  <scstep>
   <time name="dav">   15.12    1.90</time>
   <time name="total">   15.51    1.97</time>
   <energy>
    <i name="alphaZ">      0.87575161 </i>
    <i name="ewald">    -13.80331150 </i>
    <i name="hartreedc">   -348.16693783 </i>
    <i name="XCdc">     32.24976667 </i>
    <i name="pawpsdc">    350.81753176 </i>
    <i name="pawaedc">   -352.63395800 </i>
    <i name="eentropy">     -0.00000000 </i>
    <i name="bandstr">    -54.58798462 </i>
    <i name="atom">    457.33192828 </i>
    <i name="e_fr_energy">     72.08278637 </i>
    <i name="e_wo_entrp">     72.08278637 </i>
    <i name="e_0_energy">     72.08278637 </i>
   </energy>
  </scstep>
  <scstep>
   <time name="dav">   28.11    3.54</time>
   <time name="total">   28.11    3.54</time>
   <energy>
    <i name="e_fr_energy">     -2.01093043 </i>
    <i name="e_wo_entrp">     -2.01093043 </i>
    <i name="e_0_energy">     -2.01093043 </i>
   </energy>
  </scstep>
  <scstep>
   <time name="dav">   16.97    2.14</time>
   <time name="total">   16.97    2.14</time>
   <energy>
    <i name="e_fr_energy">    -16.04014194 </i>
    <i name="e_wo_entrp">    -16.04014194 </i>
    <i name="e_0_energy">    -16.04014194 </i>
   </energy>
  </scstep>
  <scstep>
   <time name="dav">   15.26    1.92</time>
   <time name="total">   15.26    1.92</time>
   <energy>
    <i name="e_fr_energy">    -16.34810865 </i>
    <i name="e_wo_entrp">    -16.34810865 </i>
    <i name="e_0_energy">    -16.34810865 </i>
   </energy>
  </scstep>
  <scstep>
   <time name="dav">   27.41    3.43</time>
   <time name="total">   28.14    3.53</time>
   <energy>
    <i name="e_fr_energy">    -16.35209640 </i>
    <i name="e_wo_entrp">    -16.35209640 </i>
    <i name="e_0_energy">    -16.35209640 </i>
   </energy>
  </scstep>
  <scstep>
   <time name="dav">   15.67    1.97</time>
   <time name="total">   16.70    2.13</time>
   <energy>
    <i name="e_fr_energy">    -14.36729529 </i>
    <i name="e_wo_entrp">    -14.36729529 </i>
    <i name="e_0_energy">    -14.36729529 </i>
   </energy>
  </scstep>
  <scstep>
   <time name="dav">   20.54    2.59</time>
   <time name="total">   21.05    2.68</time>
   <energy>
    <i name="e_fr_energy">    -14.25872175 </i>
    <i name="e_wo_entrp">    -14.25872175 </i>
    <i name="e_0_energy">    -14.25872175 </i>
   </energy>
  </scstep>
  <scstep>
   <time name="dav">   17.07    2.14</time>
   <time name="total">   18.49    2.35</time>
   <energy>
    <i name="e_fr_energy">    -14.18020852 </i>
    <i name="e_wo_entrp">    -14.18020852 </i>
    <i name="e_0_energy">    -14.18020852 </i>
   </energy>
  </scstep>
  <scstep>
   <time name="dav">   21.08    2.65</time>
   <time name="total">   22.08    2.80</time>
   <energy>
    <i name="e_fr_energy">    -14.18522863 </i>
    <i name="e_wo_entrp">    -14.18522863 </i>
    <i name="e_0_energy">    -14.18522863 </i>
   </energy>
  </scstep>
  <scstep>
   <time name="dav">   15.34    1.93</time>
   <time name="total">   16.34    2.08</time>
   <energy>
    <i name="e_fr_energy">    -14.19454836 </i>
    <i name="e_wo_entrp">    -14.19454836 </i>
    <i name="e_0_energy">    -14.19454836 </i>
   </energy>
  </scstep>
  <scstep>
   <time name="dav">   21.64    2.73</time>
   <time name="total">   22.64    2.89</time>
   <energy>
    <i name="e_fr_energy">    -14.19721721 </i>
    <i name="e_wo_entrp">    -14.19721721 </i>
    <i name="e_0_energy">    -14.19721721 </i>
   </energy>
  </scstep>
  <scstep>
   <time name="dav">   15.27    1.92</time>
   <time name="total">   16.31    2.07</time>
   <energy>
    <i name="e_fr_energy">    -14.19892812 </i>
    <i name="e_wo_entrp">    -14.19892812 </i>
    <i name="e_0_energy">    -14.19892812 </i>
   </energy>
  </scstep>
  <scstep>
   <time name="dav">   19.87    2.50</time>
   <time name="total">   20.96    2.67</time>
   <energy>
    <i name="e_fr_energy">    -14.19917493 </i>
    <i name="e_wo_entrp">    -14.19917493 </i>
    <i name="e_0_energy">    -14.19917493 </i>
   </energy>
  </scstep>
  <scstep>
   <time name="dav">   19.22    2.42</time>
   <time name="total">   19.71    2.51</time>
   <energy>
    <i name="e_fr_energy">    -14.19931948 </i>
    <i name="e_wo_entrp">    -14.19931948 </i>
    <i name="e_0_energy">    -14.19931948 </i>
   </energy>
  </scstep>
  <scstep>
   <time name="dav">   22.05    2.78</time>
   <time name="total">   22.68    2.88</time>
   <energy>
    <i name="alphaZ">      0.87575161 </i>
    <i name="ewald">    -13.80331150 </i>
    <i name="hartreedc">   -383.21528976 </i>
    <i name="XCdc">     34.17552496 </i>
    <i name="pawpsdc">    556.65983413 </i>
    <i name="pawaedc">   -558.78302962 </i>
    <i name="eentropy">     -0.00000000 </i>
    <i name="bandstr">   -107.44074168 </i>
    <i name="atom">    457.33192828 </i>
    <i name="e_fr_energy">    -14.19933359 </i>
    <i name="e_wo_entrp">    -14.19933359 </i>
    <i name="e_0_energy">    -14.19933359 </i>
   </energy>
  </scstep>
  <structure>
   <crystal>
    <varray name="basis" >
     <v>       6.35016000       0.00000000       0.00000000 </v>
     <v>       0.00000000       6.35016000       0.00000000 </v>
     <v>       0.00000000       0.00000000       6.35016000 </v>
    </varray>
    <i name="volume">    256.06723029 </i>
    <varray name="rec_basis" >
     <v>       0.15747635       0.00000000       0.00000000 </v>
     <v>       0.00000000       0.15747635       0.00000000 </v>
     <v>       0.00000000       0.00000000       0.15747635 </v>
    </varray>
   </crystal>
   <varray name="positions" >
    <v>       0.00000000       0.00000000       0.00000000 </v>
    <v>       0.09166667       0.88083333       0.00000000 </v>
    <v>       0.09166667       0.11916667       0.00000000 </v>
   </varray>
  </structure>
  <varray name="forces" >
   <v>      -1.05699795       0.00000000       0.00000000 </v>
   <v>       0.52814819      -0.69649657      -0.00000000 </v>
   <v>       0.52814819       0.69649657       0.00000000 </v>
  </varray>
  <energy>
   <i name="e_fr_energy">    -14.19933359 </i>
   <i name="e_wo_entrp">    -14.19933359 </i>
   <i name="e_0_energy">    -14.19933359 </i>
   <i name="kinetic">      0.00000049 </i>
   <i name="lattice kinetic">      0.00000000 </i>
   <i name="nosepot">      0.00000000 </i>
   <i name="nosekinetic">      0.00000000 </i>
   <i name="total">    -14.19933309 </i>
  </energy>
  <time name="totalsc">  303.27   38.77</time>
 </calculation>
 <calculation>
  <scstep>
   <time name="dav">   14.03    1.77</time>
   <time name="total">   15.64    2.00</time>
   <energy>
    <i name="alphaZ">      0.87575161 </i>
    <i name="ewald">    -13.80369843 </i>
    <i name="hartreedc">   -383.21828707 </i>
    <i name="XCdc">     34.17573395 </i>
    <i name="pawpsdc">    556.63927115 </i>
    <i name="pawaedc">   -558.76250292 </i>
    <i name="eentropy">     -0.00000000 </i>
    <i name="bandstr">   -107.43753856 </i>
    <i name="atom">    457.33192828 </i>
    <i name="e_fr_energy">    -14.19934199 </i>
    <i name="e_wo_entrp">    -14.19934199 </i>
    <i name="e_0_energy">    -14.19934199 </i>
   </energy>
  </scstep>
  <scstep>
   <time name="dav">   16.28    2.05</time>
   <time name="total">   16.67    2.12</time>
   <energy>
    <i name="alphaZ">      0.87575161 </i>
    <i name="ewald">    -13.80369843 </i>
    <i name="hartreedc">   -383.21749958 </i>
    <i name="XCdc">     34.17569361 </i>
    <i name="pawpsdc">    556.64055548 </i>
    <i name="pawaedc">   -558.76377847 </i>
    <i name="eentropy">     -0.00000000 </i>
    <i name="bandstr">   -107.43829514 </i>
    <i name="atom">    457.33192828 </i>
    <i name="e_fr_energy">    -14.19934265 </i>
    <i name="e_wo_entrp">    -14.19934265 </i>
    <i name="e_0_energy">    -14.19934265 </i>
   </energy>
  </scstep>
  <structure>
   <crystal>
    <varray name="basis" >
     <v>       6.35016000       0.00000000       0.00000000 </v>
     <v>       0.00000000       6.35016000       0.00000000 </v>
     <v>       0.00000000       0.00000000       6.35016000 </v>
    </varray>
    <i name="volume">    256.06723029 </i>
    <varray name="rec_basis" >
     <v>       0.15747635       0.00000000       0.00000000 </v>
     <v>       0.00000000       0.15747635       0.00000000 </v>
     <v>       0.00000000       0.00000000       0.15747635 </v>
    </varray>
   </crystal>
   <varray name="positions" >
    <v>       0.00000000       0.00000000       0.00000000 </v>
    <v>       0.09166686       0.88083309       0.00000000 </v>
    <v>       0.09166682       0.11916694       0.00000000 </v>
   </varray>
  </structure>
  <varray name="forces" >
   <v>      -1.05751876      -0.00000000      -0.00000000 </v>
   <v>       0.52855171      -0.69693868       0.00000000 </v>
   <v>       0.52855171       0.69693868      -0.00000000 </v>
  </varray>
  <energy>
   <i name="e_fr_energy">    -14.19934265 </i>
   <i name="e_wo_entrp">    -14.19934265 </i>
   <i name="e_0_energy">    -14.19934265 </i>
   <i name="kinetic">      0.00000394 </i>
   <i name="lattice kinetic">      0.00000000 </i>
   <i name="nosepot">      0.00000000 </i>
   <i name="nosekinetic">      0.00000000 </i>
   <i name="total">    -14.19933871 </i>
  </energy>
  <time name="totalsc">   34.50    4.48</time>
 </calculation>
 <calculation>
  <scstep>
   <time name="dav">   15.04    1.90</time>
   <time name="total">   16.67    2.14</time>
   <energy>
    <i name="alphaZ">      0.87575161 </i>
    <i name="ewald">    -13.80445804 </i>
    <i name="hartreedc">   -383.21321850 </i>
    <i name="XCdc">     34.17548128 </i>
    <i name="pawpsdc">    556.65083302 </i>
    <i name="pawaedc">   -558.77404334 </i>
    <i name="eentropy">     -0.00000000 </i>
    <i name="bandstr">   -107.44162459 </i>
    <i name="atom">    457.33192828 </i>
    <i name="e_fr_energy">    -14.19935027 </i>
    <i name="e_wo_entrp">    -14.19935027 </i>
    <i name="e_0_energy">    -14.19935027 </i>
   </energy>
  </scstep>
  <scstep>
   <time name="dav">   14.63    1.85</time>
   <time name="total">   15.02    1.92</time>
   <energy>
    <i name="alphaZ">      0.87575161 </i>
    <i name="ewald">    -13.80445804 </i>
    <i name="hartreedc">   -383.21501216 </i>
    <i name="XCdc">     34.17558052 </i>
    <i name="pawpsdc">    556.64962513 </i>
    <i name="pawaedc">   -558.77286170 </i>
    <i name="eentropy">     -0.00000000 </i>
    <i name="bandstr">   -107.43990410 </i>
    <i name="atom">    457.33192828 </i>
    <i name="e_fr_energy">    -14.19935046 </i>
    <i name="e_wo_entrp">    -14.19935046 </i>
    <i name="e_0_energy">    -14.19935046 </i>
   </energy>
  </scstep>
  <structure>
   <crystal>
    <varray name="basis" >
     <v>       6.35016000       0.00000000       0.00000000 </v>
     <v>       0.00000000       6.35016000       0.00000000 </v>
     <v>       0.00000000       0.00000000       6.35016000 </v>
    </varray>
    <i name="volume">    256.06723029 </i>
    <varray name="rec_basis" >
     <v>       0.15747635       0.00000000       0.00000000 </v>
     <v>       0.00000000       0.15747635       0.00000000 </v>
     <v>       0.00000000       0.00000000       0.15747635 </v>
    </varray>
   </crystal>
   <varray name="positions" >
    <v>       0.00000000       0.00000000       0.00000000 </v>
    <v>       0.09166723       0.88083261       0.00000000 </v>
    <v>       0.09166716       0.11916745       0.00000000 </v>
   </varray>
  </structure>
  <varray name="forces" >
   <v>      -1.05717414       0.00000000      -0.00000000 </v>
   <v>       0.52841032      -0.69673949      -0.00000000 </v>
   <v>       0.52841032       0.69673949      -0.00000000 </v>
  </varray>
  <energy>
   <i name="e_fr_energy">    -14.19935046 </i>
   <i name="e_wo_entrp">    -14.19935046 </i>
   <i name="e_0_energy">    -14.19935046 </i>
   <i name="kinetic">      0.00001070 </i>
   <i name="lattice kinetic">      0.00000000 </i>
   <i name="nosepot">      0.00000000 </i>
   <i name="nosekinetic">      0.00000000 </i>
   <i name="total">    -14.19933976 </i>
  </energy>
  <time name="totalsc">   33.84    4.41</time>
 </calculation>
 <calculation>
  <scstep>
   <time name="dav">   14.74    1.85</time>
   <time name="total">   16.44    2.10</time>
   <energy>
    <i name="alphaZ">      0.87575161 </i>
    <i name="ewald">    -13.80559020 </i>
    <i name="hartreedc">   -383.21429190 </i>
    <i name="XCdc">     34.17556995 </i>
    <i name="pawpsdc">    556.65038664 </i>
    <i name="pawaedc">   -558.77364079 </i>
    <i name="eentropy">     -0.00000000 </i>
    <i name="bandstr">   -107.43947232 </i>
    <i name="atom">    457.33192828 </i>
    <i name="e_fr_energy">    -14.19935873 </i>
    <i name="e_wo_entrp">    -14.19935873 </i>
    <i name="e_0_energy">    -14.19935873 </i>
   </energy>
  </scstep>
  <scstep>
   <time name="dav">   21.74    2.73</time>
   <time name="total">   22.08    2.80</time>
   <energy>
    <i name="alphaZ">      0.87575161 </i>
    <i name="ewald">    -13.80559020 </i>
    <i name="hartreedc">   -383.21355944 </i>
    <i name="XCdc">     34.17552479 </i>
    <i name="pawpsdc">    556.64517252 </i>
    <i name="pawaedc">   -558.76839854 </i>
    <i name="eentropy">     -0.00000000 </i>
    <i name="bandstr">   -107.44018843 </i>
    <i name="atom">    457.33192828 </i>
    <i name="e_fr_energy">    -14.19935941 </i>
    <i name="e_wo_entrp">    -14.19935941 </i>
    <i name="e_0_energy">    -14.19935941 </i>
   </energy>
  </scstep>
  <structure>
   <crystal>
    <varray name="basis" >
     <v>       6.35016000       0.00000000       0.00000000 </v>
     <v>       0.00000000       6.35016000       0.00000000 </v>
     <v>       0.00000000       0.00000000       6.35016000 </v>
    </varray>
    <i name="volume">    256.06723029 </i>
    <varray name="rec_basis" >
     <v>       0.15747635       0.00000000       0.00000000 </v>
     <v>       0.00000000       0.15747635       0.00000000 </v>
     <v>       0.00000000       0.00000000       0.15747635 </v>
    </varray>
   </crystal>
   <varray name="positions" >
    <v>       0.00000000       0.00000000       0.00000000 </v>
    <v>       0.09166779       0.88083190       0.00000000 </v>
    <v>       0.09166768       0.11916820       0.00000000 </v>
   </varray>
  </structure>
  <varray name="forces" >
   <v>      -1.05686422       0.00000000       0.00000000 </v>
   <v>       0.52826149      -0.69649732       0.00000000 </v>
   <v>       0.52826149       0.69649732      -0.00000000 </v>
  </varray>
  <energy>
   <i name="e_fr_energy">    -14.19935941 </i>
   <i name="e_wo_entrp">    -14.19935941 </i>
   <i name="e_0_energy">    -14.19935941 </i>
   <i name="kinetic">      0.00002078 </i>
   <i name="lattice kinetic">      0.00000000 </i>
   <i name="nosepot">      0.00000000 </i>
   <i name="nosekinetic">      0.00000000 </i>
   <i name="total">    -14.19933863 </i>
  </energy>
  <time name="totalsc">   40.82    5.26</time>
 </calculation>
 <calculation>
  <scstep>
   <time name="dav">   15.54    1.95</time>
   <time name="total">   17.21    2.19</time>
   <energy>
    <i name="alphaZ">      0.87575161 </i>
    <i name="ewald">    -13.80709478 </i>
    <i name="hartreedc">   -383.21201592 </i>
    <i name="XCdc">     34.17545065 </i>
    <i name="pawpsdc">    556.62880979 </i>
    <i name="pawaedc">   -558.75199604 </i>
    <i name="eentropy">     -0.00000000 </i>
    <i name="bandstr">   -107.44020667 </i>
    <i name="atom">    457.33192828 </i>
    <i name="e_fr_energy">    -14.19937310 </i>
    <i name="e_wo_entrp">    -14.19937310 </i>
    <i name="e_0_energy">    -14.19937310 </i>
   </energy>
  </scstep>
  <scstep>
   <time name="dav">   20.76    2.61</time>
   <time name="total">   21.11    2.67</time>
   <energy>
    <i name="alphaZ">      0.87575161 </i>
    <i name="ewald">    -13.80709478 </i>
    <i name="hartreedc">   -383.21271076 </i>
    <i name="XCdc">     34.17548165 </i>
    <i name="pawpsdc">    556.63125242 </i>
    <i name="pawaedc">   -558.75445347 </i>
    <i name="eentropy">     -0.00000000 </i>
    <i name="bandstr">   -107.43952837 </i>
    <i name="atom">    457.33192828 </i>
    <i name="e_fr_energy">    -14.19937343 </i>
    <i name="e_wo_entrp">    -14.19937343 </i>
    <i name="e_0_energy">    -14.19937343 </i>
   </energy>
  </scstep>
  <structure>
   <crystal>
    <varray name="basis" >
     <v>       6.35016000       0.00000000       0.00000000 </v>
     <v>       0.00000000       6.35016000       0.00000000 </v>
     <v>       0.00000000       0.00000000       6.35016000 </v>
    </varray>
    <i name="volume">    256.06723029 </i>
    <varray name="rec_basis" >
     <v>       0.15747635       0.00000000       0.00000000 </v>
     <v>       0.00000000       0.15747635       0.00000000 </v>
     <v>       0.00000000       0.00000000       0.15747635 </v>
    </varray>
   </crystal>
   <varray name="positions" >
    <v>       0.00000000       0.00000000       0.00000000 </v>
    <v>       0.09166852       0.88083094       0.00000000 </v>
    <v>       0.09166838       0.11916918       0.00000000 </v>
   </varray>
  </structure>
  <varray name="forces" >
   <v>      -1.05634678       0.00000000      -0.00000000 </v>
   <v>       0.52800045      -0.69612114       0.00000000 </v>
   <v>       0.52800045       0.69612114      -0.00000000 </v>
  </varray>
  <energy>
   <i name="e_fr_energy">    -14.19937343 </i>
   <i name="e_wo_entrp">    -14.19937343 </i>
   <i name="e_0_energy">    -14.19937343 </i>
   <i name="kinetic">      0.00003418 </i>
   <i name="lattice kinetic">      0.00000000 </i>
   <i name="nosepot">      0.00000000 </i>
   <i name="nosekinetic">      0.00000000 </i>
   <i name="total">    -14.19933926 </i>
  </energy>
  <time name="totalsc">   40.56    5.23</time>
 </calculation>
 <calculation>
  <scstep>
   <time name="dav">   14.44    1.81</time>
   <time name="total">   16.09    2.05</time>
   <energy>
    <i name="alphaZ">      0.87575161 </i>
    <i name="ewald">    -13.80897158 </i>
    <i name="hartreedc">   -383.21284540 </i>
    <i name="XCdc">     34.17546732 </i>
    <i name="pawpsdc">    556.61836199 </i>
    <i name="pawaedc">   -558.74154804 </i>
    <i name="eentropy">     -0.00000000 </i>
    <i name="bandstr">   -107.43753454 </i>
    <i name="atom">    457.33192828 </i>
    <i name="e_fr_energy">    -14.19939037 </i>
    <i name="e_wo_entrp">    -14.19939037 </i>
    <i name="e_0_energy">    -14.19939037 </i>
   </energy>
  </scstep>
  <scstep>
   <time name="dav">   12.86    1.62</time>
   <time name="total">   13.23    1.69</time>
   <energy>
    <i name="alphaZ">      0.87575161 </i>
    <i name="ewald">    -13.80897158 </i>
    <i name="hartreedc">   -383.21252912 </i>
    <i name="XCdc">     34.17544838 </i>
    <i name="pawpsdc">    556.62135151 </i>
    <i name="pawaedc">   -558.74453854 </i>
    <i name="eentropy">     -0.00000000 </i>
    <i name="bandstr">   -107.43783116 </i>
    <i name="atom">    457.33192828 </i>
    <i name="e_fr_energy">    -14.19939063 </i>
    <i name="e_wo_entrp">    -14.19939063 </i>
    <i name="e_0_energy">    -14.19939063 </i>
   </energy>
  </scstep>
  <structure>
   <crystal>
    <varray name="basis" >
     <v>       6.35016000       0.00000000       0.00000000 </v>
     <v>       0.00000000       6.35016000       0.00000000 </v>
     <v>       0.00000000       0.00000000       6.35016000 </v>
    </varray>
    <i name="volume">    256.06723029 </i>
    <varray name="rec_basis" >
     <v>       0.15747635       0.00000000       0.00000000 </v>
     <v>       0.00000000       0.15747635       0.00000000 </v>
     <v>       0.00000000       0.00000000       0.15747635 </v>
    </varray>
   </crystal>
   <varray name="positions" >
    <v>       0.00000000       0.00000000       0.00000000 </v>
    <v>       0.09166944       0.88082975       0.00000000 </v>
    <v>       0.09166926       0.11917041       0.00000000 </v>
   </varray>
  </structure>
  <varray name="forces" >
   <v>      -1.05580073      -0.00000000       0.00000000 </v>
   <v>       0.52770696      -0.69567852      -0.00000000 </v>
   <v>       0.52770696       0.69567852       0.00000000 </v>
  </varray>
  <energy>
   <i name="e_fr_energy">    -14.19939063 </i>
   <i name="e_wo_entrp">    -14.19939063 </i>
   <i name="e_0_energy">    -14.19939063 </i>
   <i name="kinetic">      0.00005088 </i>
   <i name="lattice kinetic">      0.00000000 </i>
   <i name="nosepot">      0.00000000 </i>
   <i name="nosekinetic">      0.00000000 </i>
   <i name="total">    -14.19933975 </i>
  </energy>
  <time name="totalsc">   31.52    4.09</time>
 </calculation>
 <calculation>
  <scstep>
   <time name="dav">   15.91    2.00</time>
   <time name="total">   17.54    2.23</time>
   <energy>
    <i name="alphaZ">      0.87575161 </i>
    <i name="ewald">    -13.81122034 </i>
    <i name="hartreedc">   -383.21168843 </i>
    <i name="XCdc">     34.17536657 </i>
    <i name="pawpsdc">    556.62228308 </i>
    <i name="pawaedc">   -558.74546267 </i>
    <i name="eentropy">     -0.00000000 </i>
    <i name="bandstr">   -107.43636616 </i>
    <i name="atom">    457.33192828 </i>
    <i name="e_fr_energy">    -14.19940807 </i>
    <i name="e_wo_entrp">    -14.19940807 </i>
    <i name="e_0_energy">    -14.19940807 </i>
   </energy>
  </scstep>
  <scstep>
   <time name="dav">   21.84    2.75</time>
   <time name="total">   22.18    2.82</time>
   <energy>
    <i name="alphaZ">      0.87575161 </i>
    <i name="ewald">    -13.81122034 </i>
    <i name="hartreedc">   -383.21168253 </i>
    <i name="XCdc">     34.17537482 </i>
    <i name="pawpsdc">    556.62161082 </i>
    <i name="pawaedc">   -558.74479348 </i>
    <i name="eentropy">     -0.00000000 </i>
    <i name="bandstr">   -107.43637807 </i>
    <i name="atom">    457.33192828 </i>
    <i name="e_fr_energy">    -14.19940888 </i>
    <i name="e_wo_entrp">    -14.19940888 </i>
    <i name="e_0_energy">    -14.19940888 </i>
   </energy>
  </scstep>
  <structure>
   <crystal>
    <varray name="basis" >
     <v>       6.35016000       0.00000000       0.00000000 </v>
     <v>       0.00000000       6.35016000       0.00000000 </v>
     <v>       0.00000000       0.00000000       6.35016000 </v>
    </varray>
    <i name="volume">    256.06723029 </i>
    <varray name="rec_basis" >
     <v>       0.15747635       0.00000000       0.00000000 </v>
     <v>       0.00000000       0.15747635       0.00000000 </v>
     <v>       0.00000000       0.00000000       0.15747635 </v>
    </varray>
   </crystal>
   <varray name="positions" >
    <v>       0.00000000       0.00000000       0.00000000 </v>
    <v>       0.09167053       0.88082832       0.00000000 </v>
    <v>       0.09167032       0.11917187       0.00000000 </v>
   </varray>
  </structure>
  <varray name="forces" >
   <v>      -1.05509585       0.00000000      -0.00000000 </v>
   <v>       0.52734243      -0.69512612       0.00000000 </v>
   <v>       0.52734243       0.69512612      -0.00000000 </v>
  </varray>
  <energy>
   <i name="e_fr_energy">    -14.19940888 </i>
   <i name="e_wo_entrp">    -14.19940888 </i>
   <i name="e_0_energy">    -14.19940888 </i>
   <i name="kinetic">      0.00007088 </i>
   <i name="lattice kinetic">      0.00000000 </i>
   <i name="nosepot">      0.00000000 </i>
   <i name="nosekinetic">      0.00000000 </i>
   <i name="total">    -14.19933801 </i>
  </energy>
  <time name="totalsc">   41.97    5.42</time>
 </calculation>
 <calculation>
  <scstep>
   <time name="dav">   15.54    1.95</time>
   <time name="total">   17.18    2.19</time>
   <energy>
    <i name="alphaZ">      0.87575161 </i>
    <i name="ewald">    -13.81384075 </i>
    <i name="hartreedc">   -383.20978822 </i>
    <i name="XCdc">     34.17530259 </i>
    <i name="pawpsdc">    556.61231336 </i>
    <i name="pawaedc">   -558.73547610 </i>
    <i name="eentropy">     -0.00000000 </i>
    <i name="bandstr">   -107.43562469 </i>
    <i name="atom">    457.33192828 </i>
    <i name="e_fr_energy">    -14.19943393 </i>
    <i name="e_wo_entrp">    -14.19943393 </i>
    <i name="e_0_energy">    -14.19943393 </i>
   </energy>
  </scstep>
  <scstep>
   <time name="dav">   20.48    2.57</time>
   <time name="total">   20.84    2.64</time>
   <energy>
    <i name="alphaZ">      0.87575161 </i>
    <i name="ewald">    -13.81384075 </i>
    <i name="hartreedc">   -383.20902246 </i>
    <i name="XCdc">     34.17526156 </i>
    <i name="pawpsdc">    556.61107205 </i>
    <i name="pawaedc">   -558.73422688 </i>
    <i name="eentropy">     -0.00000000 </i>
    <i name="bandstr">   -107.43635745 </i>
    <i name="atom">    457.33192828 </i>
    <i name="e_fr_energy">    -14.19943404 </i>
    <i name="e_wo_entrp">    -14.19943404 </i>
    <i name="e_0_energy">    -14.19943404 </i>
   </energy>
  </scstep>
  <structure>
   <crystal>
    <varray name="basis" >
     <v>       6.35016000       0.00000000       0.00000000 </v>
     <v>       0.00000000       6.35016000       0.00000000 </v>
     <v>       0.00000000       0.00000000       6.35016000 </v>
    </varray>
    <i name="volume">    256.06723029 </i>
    <varray name="rec_basis" >
     <v>       0.15747635       0.00000000       0.00000000 </v>
     <v>       0.00000000       0.15747635       0.00000000 </v>
     <v>       0.00000000       0.00000000       0.15747635 </v>
    </varray>
   </crystal>
   <varray name="positions" >
    <v>       0.00000000       0.00000000       0.00000000 </v>
    <v>       0.09167181       0.88082665       0.00000000 </v>
    <v>       0.09167156       0.11917357       0.00000000 </v>
   </varray>
  </structure>
  <varray name="forces" >
   <v>      -1.05429150      -0.00000000      -0.00000000 </v>
   <v>       0.52694471      -0.69452403      -0.00000000 </v>
   <v>       0.52694471       0.69452403      -0.00000000 </v>
  </varray>
  <energy>
   <i name="e_fr_energy">    -14.19943404 </i>
   <i name="e_wo_entrp">    -14.19943404 </i>
   <i name="e_0_energy">    -14.19943404 </i>
   <i name="kinetic">      0.00009416 </i>
   <i name="lattice kinetic">      0.00000000 </i>
   <i name="nosepot">      0.00000000 </i>
   <i name="nosekinetic">      0.00000000 </i>
   <i name="total">    -14.19933988 </i>
  </energy>
  <time name="totalsc">   40.29    5.19</time>
 </calculation>
 <calculation>
  <scstep>
   <time name="dav">   13.98    1.78</time>
   <time name="total">   15.68    2.02</time>
   <energy>
    <i name="alphaZ">      0.87575161 </i>
    <i name="ewald">    -13.81683247 </i>
    <i name="hartreedc">   -383.20501957 </i>
    <i name="XCdc">     34.17507087 </i>
    <i name="pawpsdc">    556.60062041 </i>
    <i name="pawaedc">   -558.72374723 </i>
    <i name="eentropy">     -0.00000000 </i>
    <i name="bandstr">   -107.43723208 </i>
    <i name="atom">    457.33192828 </i>
    <i name="e_fr_energy">    -14.19946019 </i>
    <i name="e_wo_entrp">    -14.19946019 </i>
    <i name="e_0_energy">    -14.19946019 </i>
   </energy>
  </scstep>
  <scstep>
   <time name="dav">   21.03    2.64</time>
   <time name="total">   21.36    2.71</time>
   <energy>
    <i name="alphaZ">      0.87575161 </i>
    <i name="ewald">    -13.81683247 </i>
    <i name="hartreedc">   -383.20561489 </i>
    <i name="XCdc">     34.17510053 </i>
    <i name="pawpsdc">    556.60127863 </i>
    <i name="pawaedc">   -558.72441835 </i>
    <i name="eentropy">     -0.00000000 </i>
    <i name="bandstr">   -107.43665373 </i>
    <i name="atom">    457.33192828 </i>
    <i name="e_fr_energy">    -14.19946040 </i>
    <i name="e_wo_entrp">    -14.19946040 </i>
    <i name="e_0_energy">    -14.19946040 </i>
   </energy>
  </scstep>
  <structure>
   <crystal>
    <varray name="basis" >
     <v>       6.35016000       0.00000000       0.00000000 </v>
     <v>       0.00000000       6.35016000       0.00000000 </v>
     <v>       0.00000000       0.00000000       6.35016000 </v>
    </varray>
    <i name="volume">    256.06723029 </i>
    <varray name="rec_basis" >
     <v>       0.15747635       0.00000000       0.00000000 </v>
     <v>       0.00000000       0.15747635       0.00000000 </v>
     <v>       0.00000000       0.00000000       0.15747635 </v>
    </varray>
   </crystal>
   <varray name="positions" >
    <v>       0.00000000       0.00000000       0.00000000 </v>
    <v>       0.09167327       0.88082474       0.00000000 </v>
    <v>       0.09167298       0.11917551       0.00000000 </v>
   </varray>
  </structure>
  <varray name="forces" >
   <v>      -1.05327283       0.00000000      -0.00000000 </v>
   <v>       0.52646114      -0.69380798       0.00000000 </v>
   <v>       0.52646114       0.69380798      -0.00000000 </v>
  </varray>
  <energy>
   <i name="e_fr_energy">    -14.19946040 </i>
   <i name="e_wo_entrp">    -14.19946040 </i>
   <i name="e_0_energy">    -14.19946040 </i>
   <i name="kinetic">      0.00012073 </i>
   <i name="lattice kinetic">      0.00000000 </i>
   <i name="nosepot">      0.00000000 </i>
   <i name="nosekinetic">      0.00000000 </i>
   <i name="total">    -14.19933967 </i>
  </energy>
  <time name="totalsc">   39.35    5.09</time>
 </calculation>
 <calculation>
  <scstep>
   <time name="dav">   14.36    1.81</time>
   <time name="total">   15.97    2.04</time>
   <energy>
    <i name="alphaZ">      0.87575161 </i>
    <i name="ewald">    -13.82019510 </i>
    <i name="hartreedc">   -383.20221043 </i>
    <i name="XCdc">     34.17494228 </i>
    <i name="pawpsdc">    556.59031701 </i>
    <i name="pawaedc">   -558.71344503 </i>
    <i name="eentropy">     -0.00000000 </i>
    <i name="bandstr">   -107.43657775 </i>
    <i name="atom">    457.33192828 </i>
    <i name="e_fr_energy">    -14.19948913 </i>
    <i name="e_wo_entrp">    -14.19948913 </i>
    <i name="e_0_energy">    -14.19948913 </i>
   </energy>
  </scstep>
  <scstep>
   <time name="dav">   21.14    2.66</time>
   <time name="total">   21.52    2.73</time>
   <energy>
    <i name="alphaZ">      0.87575161 </i>
    <i name="ewald">    -13.82019510 </i>
    <i name="hartreedc">   -383.20240586 </i>
    <i name="XCdc">     34.17494636 </i>
    <i name="pawpsdc">    556.59007094 </i>
    <i name="pawaedc">   -558.71319346 </i>
    <i name="eentropy">     -0.00000000 </i>
    <i name="bandstr">   -107.43639235 </i>
    <i name="atom">    457.33192828 </i>
    <i name="e_fr_energy">    -14.19948958 </i>
    <i name="e_wo_entrp">    -14.19948958 </i>
    <i name="e_0_energy">    -14.19948958 </i>
   </energy>
  </scstep>
  <structure>
   <crystal>
    <varray name="basis" >
     <v>       6.35016000       0.00000000       0.00000000 </v>
     <v>       0.00000000       6.35016000       0.00000000 </v>
     <v>       0.00000000       0.00000000       6.35016000 </v>
    </varray>
    <i name="volume">    256.06723029 </i>
    <varray name="rec_basis" >
     <v>       0.15747635       0.00000000       0.00000000 </v>
     <v>       0.00000000       0.15747635       0.00000000 </v>
     <v>       0.00000000       0.00000000       0.15747635 </v>
    </varray>
   </crystal>
   <varray name="positions" >
    <v>       0.00000000       0.00000000       0.00000000 </v>
    <v>       0.09167490       0.88082260       0.00000000 </v>
    <v>       0.09167458       0.11917768       0.00000000 </v>
   </varray>
  </structure>
  <varray name="forces" >
   <v>      -1.05223614       0.00000000      -0.00000000 </v>
   <v>       0.52594972      -0.69303474       0.00000000 </v>
   <v>       0.52594972       0.69303474       0.00000000 </v>
  </varray>
  <energy>
   <i name="e_fr_energy">    -14.19948958 </i>
   <i name="e_wo_entrp">    -14.19948958 </i>
   <i name="e_0_energy">    -14.19948958 </i>
   <i name="kinetic">      0.00015055 </i>
   <i name="lattice kinetic">      0.00000000 </i>
   <i name="nosepot">      0.00000000 </i>
   <i name="nosekinetic">      0.00000000 </i>
   <i name="total">    -14.19933902 </i>
  </energy>
  <dos>
   <i name="efermi">     -6.29994116 </i>
   <total>
    <array>
     <dimension dim="1">gridpoints</dimension>
     <dimension dim="2">spin</dimension>
     <field>energy</field>
     <field>total</field>
     <field>integrated</field>
     <set>
      <set comment="spin 1">
       <r>   -26.4782     0.0000     0.0000 </r>
       <r>   -26.3768     0.0000     0.0000 </r>
       <r>   -26.2755     0.0000     0.0000 </r>
       <r>   -26.1741     0.0000     0.0000 </r>
       <r>   -26.0727     0.0000     0.0000 </r>
       <r>   -25.9713     0.0000     0.0000 </r>
       <r>   -25.8699     0.0000     0.0000 </r>
       <r>   -25.7685     0.0000     0.0000 </r>
       <r>   -25.6672     0.0000     0.0000 </r>
       <r>   -25.5658     0.0000     0.0000 </r>
       <r>   -25.4644     0.0000     0.0000 </r>
       <r>   -25.3630     0.0154     0.0016 </r>
       <r>   -25.2616     1.8525     0.1894 </r>
       <r>   -25.1602    33.7768     3.6145 </r>
       <r>   -25.0589   102.2156    13.9797 </r>
       <r>   -24.9575    54.3873    19.4948 </r>
       <r>   -24.8561     4.9127    19.9930 </r>
       <r>   -24.7547     0.0689    20.0000 </r>
       <r>   -24.6533     0.0001    20.0000 </r>
       <r>   -24.5520     0.0000    20.0000 </r>
       <r>   -24.4506     0.0000    20.0000 </r>
       <r>   -24.3492     0.0000    20.0000 </r>
       <r>   -24.2478     0.0000    20.0000 </r>
       <r>   -24.1464     0.0000    20.0000 </r>
       <r>   -24.0450     0.0000    20.0000 </r>
       <r>   -23.9437     0.0000    20.0000 </r>
       <r>   -23.8423     0.0000    20.0000 </r>
       <r>   -23.7409     0.0000    20.0000 </r>
       <r>   -23.6395     0.0000    20.0000 </r>
       <r>   -23.5381     0.0000    20.0000 </r>
       <r>   -23.4367     0.0000    20.0000 </r>
       <r>   -23.3354     0.0000    20.0000 </r>
       <r>   -23.2340     0.0000    20.0000 </r>
       <r>   -23.1326     0.0000    20.0000 </r>
       <r>   -23.0312     0.0000    20.0000 </r>
       <r>   -22.9298     0.0000    20.0000 </r>
       <r>   -22.8285     0.0000    20.0000 </r>
       <r>   -22.7271     0.0000    20.0000 </r>
       <r>   -22.6257     0.0000    20.0000 </r>
       <r>   -22.5243     0.0000    20.0000 </r>
       <r>   -22.4229     0.0000    20.0000 </r>
       <r>   -22.3215     0.0000    20.0000 </r>
       <r>   -22.2202     0.0000    20.0000 </r>
       <r>   -22.1188     0.0000    20.0000 </r>
       <r>   -22.0174     0.0000    20.0000 </r>
       <r>   -21.9160     0.0000    20.0000 </r>
       <r>   -21.8146     0.0000    20.0000 </r>
       <r>   -21.7132     0.0000    20.0000 </r>
       <r>   -21.6119     0.0000    20.0000 </r>
       <r>   -21.5105     0.0000    20.0000 </r>
       <r>   -21.4091     0.0000    20.0000 </r>
       <r>   -21.3077     0.0000    20.0000 </r>
       <r>   -21.2063     0.0000    20.0000 </r>
       <r>   -21.1049     0.0000    20.0000 </r>
       <r>   -21.0036     0.0000    20.0000 </r>
       <r>   -20.9022     0.0000    20.0000 </r>
       <r>   -20.8008     0.0000    20.0000 </r>
       <r>   -20.6994     0.0000    20.0000 </r>
       <r>   -20.5980     0.0000    20.0000 </r>
       <r>   -20.4967     0.0000    20.0000 </r>
       <r>   -20.3953     0.0000    20.0000 </r>
       <r>   -20.2939     0.0000    20.0000 </r>
       <r>   -20.1925     0.0000    20.0000 </r>
       <r>   -20.0911     0.0000    20.0000 </r>
       <r>   -19.9897     0.0000    20.0000 </r>
       <r>   -19.8884     0.0000    20.0000 </r>
       <r>   -19.7870     0.0000    20.0000 </r>
       <r>   -19.6856     0.0000    20.0000 </r>
       <r>   -19.5842     0.0000    20.0000 </r>
       <r>   -19.4828     0.0000    20.0000 </r>
       <r>   -19.3814     0.0000    20.0000 </r>
       <r>   -19.2801     0.0000    20.0000 </r>
       <r>   -19.1787     0.0000    20.0000 </r>
       <r>   -19.0773     0.0000    20.0000 </r>
       <r>   -18.9759     0.0000    20.0000 </r>
       <r>   -18.8745     0.0000    20.0000 </r>
       <r>   -18.7732     0.0000    20.0000 </r>
       <r>   -18.6718     0.0000    20.0000 </r>
       <r>   -18.5704     0.0000    20.0000 </r>
       <r>   -18.4690     0.0000    20.0000 </r>
       <r>   -18.3676     0.0000    20.0000 </r>
       <r>   -18.2662     0.0000    20.0000 </r>
       <r>   -18.1649     0.0000    20.0000 </r>
       <r>   -18.0635     0.0000    20.0000 </r>
       <r>   -17.9621     0.0000    20.0000 </r>
       <r>   -17.8607     0.0000    20.0000 </r>
       <r>   -17.7593     0.0000    20.0000 </r>
       <r>   -17.6579     0.0000    20.0000 </r>
       <r>   -17.5566     0.0000    20.0000 </r>
       <r>   -17.4552     0.0000    20.0000 </r>
       <r>   -17.3538     0.0000    20.0000 </r>
       <r>   -17.2524     0.0000    20.0000 </r>
       <r>   -17.1510     0.0000    20.0000 </r>
       <r>   -17.0497     0.0000    20.0000 </r>
       <r>   -16.9483     0.0000    20.0000 </r>
       <r>   -16.8469     0.0000    20.0000 </r>
       <r>   -16.7455     0.0000    20.0000 </r>
       <r>   -16.6441     0.0000    20.0000 </r>
       <r>   -16.5427     0.0000    20.0000 </r>
       <r>   -16.4414     0.0000    20.0000 </r>
       <r>   -16.3400     0.0000    20.0000 </r>
       <r>   -16.2386     0.0000    20.0000 </r>
       <r>   -16.1372     0.0000    20.0000 </r>
       <r>   -16.0358     0.0000    20.0000 </r>
       <r>   -15.9344     0.0000    20.0000 </r>
       <r>   -15.8331     0.0000    20.0000 </r>
       <r>   -15.7317     0.0000    20.0000 </r>
       <r>   -15.6303     0.0000    20.0000 </r>
       <r>   -15.5289     0.0000    20.0000 </r>
       <r>   -15.4275     0.0000    20.0000 </r>
       <r>   -15.3261     0.0000    20.0000 </r>
       <r>   -15.2248     0.0000    20.0000 </r>
       <r>   -15.1234     0.0000    20.0000 </r>
       <r>   -15.0220     0.0000    20.0000 </r>
       <r>   -14.9206     0.0000    20.0000 </r>
       <r>   -14.8192     0.0000    20.0000 </r>
       <r>   -14.7179     0.0000    20.0000 </r>
       <r>   -14.6165     0.0000    20.0000 </r>
       <r>   -14.5151     0.0000    20.0000 </r>
       <r>   -14.4137     0.0000    20.0000 </r>
       <r>   -14.3123     0.0000    20.0000 </r>
       <r>   -14.2109     0.0000    20.0000 </r>
       <r>   -14.1096     0.0000    20.0000 </r>
       <r>   -14.0082     0.0000    20.0000 </r>
       <r>   -13.9068     0.0000    20.0000 </r>
       <r>   -13.8054     0.0000    20.0000 </r>
       <r>   -13.7040     0.0000    20.0000 </r>
       <r>   -13.6026     0.0000    20.0000 </r>
       <r>   -13.5013     0.0000    20.0000 </r>
       <r>   -13.3999     0.0000    20.0000 </r>
       <r>   -13.2985     0.0000    20.0000 </r>
       <r>   -13.1971     0.0016    20.0002 </r>
       <r>   -13.0957     0.3997    20.0407 </r>
       <r>   -12.9944    14.3772    21.4986 </r>
       <r>   -12.8930    83.2592    29.9416 </r>
       <r>   -12.7916    84.0008    38.4596 </r>
       <r>   -12.6902    14.7706    39.9574 </r>
       <r>   -12.5888     0.4184    39.9998 </r>
       <r>   -12.4874     0.0018    40.0000 </r>
       <r>   -12.3861     0.0000    40.0000 </r>
       <r>   -12.2847     0.0000    40.0000 </r>
       <r>   -12.1833     0.0000    40.0000 </r>
       <r>   -12.0819     0.0000    40.0000 </r>
       <r>   -11.9805     0.0000    40.0000 </r>
       <r>   -11.8791     0.0000    40.0000 </r>
       <r>   -11.7778     0.0000    40.0000 </r>
       <r>   -11.6764     0.0000    40.0000 </r>
       <r>   -11.5750     0.0000    40.0000 </r>
       <r>   -11.4736     0.0000    40.0000 </r>
       <r>   -11.3722     0.0000    40.0000 </r>
       <r>   -11.2709     0.0000    40.0000 </r>
       <r>   -11.1695     0.0000    40.0000 </r>
       <r>   -11.0681     0.0000    40.0000 </r>
       <r>   -10.9667     0.0000    40.0000 </r>
       <r>   -10.8653     0.0000    40.0000 </r>
       <r>   -10.7639     0.0000    40.0000 </r>
       <r>   -10.6626     0.0000    40.0000 </r>
       <r>   -10.5612     0.0000    40.0000 </r>
       <r>   -10.4598     0.0000    40.0000 </r>
       <r>   -10.3584     0.0000    40.0000 </r>
       <r>   -10.2570     0.0000    40.0000 </r>
       <r>   -10.1556     0.0000    40.0000 </r>
       <r>   -10.0543     0.0000    40.0000 </r>
       <r>    -9.9529     0.0000    40.0000 </r>
       <r>    -9.8515     0.0000    40.0000 </r>
       <r>    -9.7501     0.0000    40.0000 </r>
       <r>    -9.6487     0.0000    40.0000 </r>
       <r>    -9.5473     0.0000    40.0000 </r>
       <r>    -9.4460     0.0000    40.0000 </r>
       <r>    -9.3446     0.0000    40.0000 </r>
       <r>    -9.2432     0.0001    40.0000 </r>
       <r>    -9.1418     0.0412    40.0042 </r>
       <r>    -9.0404     3.5135    40.3605 </r>
       <r>    -8.9391    46.3601    45.0617 </r>
       <r>    -8.8377   103.6135    55.5686 </r>
       <r>    -8.7363    40.9500    59.7210 </r>
       <r>    -8.6349     2.7231    59.9972 </r>
       <r>    -8.5335     0.0278    60.0000 </r>
       <r>    -8.4321     0.0000    60.0000 </r>
       <r>    -8.3308     0.0000    60.0000 </r>
       <r>    -8.2294     0.0000    60.0000 </r>
       <r>    -8.1280     0.0000    60.0000 </r>
       <r>    -8.0266     0.0000    60.0000 </r>
       <r>    -7.9252     0.0000    60.0000 </r>
       <r>    -7.8238     0.0000    60.0000 </r>
       <r>    -7.7225     0.0000    60.0000 </r>
       <r>    -7.6211     0.0000    60.0000 </r>
       <r>    -7.5197     0.0000    60.0000 </r>
       <r>    -7.4183     0.0000    60.0000 </r>
       <r>    -7.3169     0.0000    60.0000 </r>
       <r>    -7.2156     0.0000    60.0000 </r>
       <r>    -7.1142     0.0162    60.0016 </r>
       <r>    -7.0128     1.8962    60.1939 </r>
       <r>    -6.9114    34.0181    63.6436 </r>
       <r>    -6.8100   102.0969    73.9968 </r>
       <r>    -6.7086    54.2156    79.4944 </r>
       <r>    -6.6073     4.9165    79.9929 </r>
       <r>    -6.5059     0.0696    80.0000 </r>
       <r>    -6.4045     0.0001    80.0000 </r>
       <r>    -6.3031     0.0000    80.0000 </r>
       <r>    -6.2017     0.0000    80.0000 </r>
       <r>    -6.1003     0.0000    80.0000 </r>
       <r>    -5.9990     0.0000    80.0000 </r>
       <r>    -5.8976     0.0000    80.0000 </r>
       <r>    -5.7962     0.0000    80.0000 </r>
       <r>    -5.6948     0.0000    80.0000 </r>
       <r>    -5.5934     0.0000    80.0000 </r>
       <r>    -5.4920     0.0000    80.0000 </r>
       <r>    -5.3907     0.0000    80.0000 </r>
       <r>    -5.2893     0.0000    80.0000 </r>
       <r>    -5.1879     0.0000    80.0000 </r>
       <r>    -5.0865     0.0000    80.0000 </r>
       <r>    -4.9851     0.0000    80.0000 </r>
       <r>    -4.8838     0.0000    80.0000 </r>
       <r>    -4.7824     0.0000    80.0000 </r>
       <r>    -4.6810     0.0000    80.0000 </r>
       <r>    -4.5796     0.0000    80.0000 </r>
       <r>    -4.4782     0.0000    80.0000 </r>
       <r>    -4.3768     0.0000    80.0000 </r>
       <r>    -4.2755     0.0000    80.0000 </r>
       <r>    -4.1741     0.0000    80.0000 </r>
       <r>    -4.0727     0.0000    80.0000 </r>
       <r>    -3.9713     0.0000    80.0000 </r>
       <r>    -3.8699     0.0000    80.0000 </r>
       <r>    -3.7685     0.0000    80.0000 </r>
       <r>    -3.6672     0.0000    80.0000 </r>
       <r>    -3.5658     0.0000    80.0000 </r>
       <r>    -3.4644     0.0000    80.0000 </r>
       <r>    -3.3630     0.0000    80.0000 </r>
       <r>    -3.2616     0.0000    80.0000 </r>
       <r>    -3.1603     0.0000    80.0000 </r>
       <r>    -3.0589     0.0000    80.0000 </r>
       <r>    -2.9575     0.0000    80.0000 </r>
       <r>    -2.8561     0.0000    80.0000 </r>
       <r>    -2.7547     0.0000    80.0000 </r>
       <r>    -2.6533     0.0000    80.0000 </r>
       <r>    -2.5520     0.0000    80.0000 </r>
       <r>    -2.4506     0.0000    80.0000 </r>
       <r>    -2.3492     0.0000    80.0000 </r>
       <r>    -2.2478     0.0000    80.0000 </r>
       <r>    -2.1464     0.0000    80.0000 </r>
       <r>    -2.0450     0.0000    80.0000 </r>
       <r>    -1.9437     0.0000    80.0000 </r>
       <r>    -1.8423     0.0000    80.0000 </r>
       <r>    -1.7409     0.0000    80.0000 </r>
       <r>    -1.6395     0.0000    80.0000 </r>
       <r>    -1.5381     0.0013    80.0001 </r>
       <r>    -1.4368     0.3381    80.0344 </r>
       <r>    -1.3354    13.0449    81.3572 </r>
       <r>    -1.2340    80.6280    89.5333 </r>
       <r>    -1.1326    86.5343    98.3083 </r>
       <r>    -1.0312    16.1915    99.9502 </r>
       <r>    -0.9298     0.4890    99.9998 </r>
       <r>    -0.8285     0.0022   100.0000 </r>
       <r>    -0.7271     0.0000   100.0000 </r>
       <r>    -0.6257     0.0000   100.0000 </r>
       <r>    -0.5243     0.0000   100.0000 </r>
       <r>    -0.4229     0.0000   100.0000 </r>
       <r>    -0.3215     0.0000   100.0000 </r>
       <r>    -0.2202     0.0000   100.0000 </r>
       <r>    -0.1188     0.0000   100.0000 </r>
       <r>    -0.0174     0.0000   100.0000 </r>
       <r>     0.0840     0.0000   100.0000 </r>
       <r>     0.1854     0.0000   100.0000 </r>
       <r>     0.2868     0.0000   100.0000 </r>
       <r>     0.3881     0.0000   100.0000 </r>
       <r>     0.4895     0.0000   100.0000 </r>
       <r>     0.5909     0.0000   100.0000 </r>
       <r>     0.6923     0.0000   100.0000 </r>
       <r>     0.7937     0.0000   100.0000 </r>
       <r>     0.8950     0.0000   100.0000 </r>
       <r>     0.9964     0.0000   100.0000 </r>
       <r>     1.0978     0.0000   100.0000 </r>
       <r>     1.1992     0.0000   100.0000 </r>
       <r>     1.3006     0.0000   100.0000 </r>
       <r>     1.4020     0.0000   100.0000 </r>
       <r>     1.5033     0.0000   100.0000 </r>
       <r>     1.6047     0.0000   100.0000 </r>
       <r>     1.7061     0.0000   100.0000 </r>
       <r>     1.8075     0.0003   100.0000 </r>
       <r>     1.9089     0.1254   100.0127 </r>
       <r>     2.0103     7.2193   100.7448 </r>
       <r>     2.1116    75.6383   108.4147 </r>
       <r>     2.2130   181.2547   126.7950 </r>
       <r>     2.3144   113.3403   138.2883 </r>
       <r>     2.4158    21.4154   140.4599 </r>
       <r>     2.5172    54.8321   146.0201 </r>
       <r>     2.6185   102.2175   156.3855 </r>
       <r>     2.7199    33.7768   159.8106 </r>
       <r>     2.8213     1.8525   159.9984 </r>
       <r>     2.9227     0.0154   160.0000 </r>
       <r>     3.0241     0.0000   160.0000 </r>
       <r>     3.1255     0.0000   160.0000 </r>
       <r>     3.2268     0.0000   160.0000 </r>
       <r>     3.3282     0.0000   160.0000 </r>
       <r>     3.4296     0.0000   160.0000 </r>
       <r>     3.5310     0.0000   160.0000 </r>
       <r>     3.6324     0.0000   160.0000 </r>
       <r>     3.7338     0.0000   160.0000 </r>
       <r>     3.8351     0.0000   160.0000 </r>
       <r>     3.9365     0.0000   160.0000 </r>
      </set>
     </set>
    </array>
   </total>
  </dos>
  <time name="totalsc">   40.72    5.28</time>
  <eigenvalues>
   <array>
    <dimension dim="1">band</dimension>
    <dimension dim="2">kpoint</dimension>
    <dimension dim="3">spin</dimension>
    <field>eigene</field>
    <field>occ</field>
    <set>
     <set comment="spin 1">
      <set comment="kpoint 1">
       <r>  -25.0953    1.0000 </r>
       <r>  -12.8895    1.0000 </r>
       <r>   -8.8888    1.0000 </r>
       <r>   -6.8434    1.0000 </r>
       <r>   -1.2193    0.0000 </r>
       <r>    2.1654    0.0000 </r>
       <r>    2.2226    0.0000 </r>
       <r>    2.5633    0.0000 </r>
      </set>
     </set>
    </set>
   </array>
  </eigenvalues>
  <separator name="orbital magnetization" >
   <v name="MAGDIPOLOUT">      0.00000000      0.00000000      0.00000000</v>
  </separator>
  <dos>
   <i name="efermi">     -6.29348303 </i>
   <total>
    <array>
     <dimension dim="1">gridpoints</dimension>
     <dimension dim="2">spin</dimension>
     <field>energy</field>
     <field>total</field>
     <field>integrated</field>
     <set>
      <set comment="spin 1">
       <r>   -26.4783     0.0000     0.0000 </r>
       <r>   -26.3769     0.0000     0.0000 </r>
       <r>   -26.2755     0.0000     0.0000 </r>
       <r>   -26.1740     0.0000     0.0000 </r>
       <r>   -26.0726     0.0000     0.0000 </r>
       <r>   -25.9712     0.0000     0.0000 </r>
       <r>   -25.8698     0.0000     0.0000 </r>
       <r>   -25.7684     0.0000     0.0000 </r>
       <r>   -25.6670     0.0000     0.0000 </r>
       <r>   -25.5655     0.0000     0.0000 </r>
       <r>   -25.4641     0.0000     0.0000 </r>
       <r>   -25.3627     0.0015     0.0002 </r>
       <r>   -25.2613     0.1851     0.0189 </r>
       <r>   -25.1599     3.3770     0.3614 </r>
       <r>   -25.0585    10.2214     1.3980 </r>
       <r>   -24.9571     5.4380     1.9495 </r>
       <r>   -24.8556     0.4910     1.9993 </r>
       <r>   -24.7542     0.0069     2.0000 </r>
       <r>   -24.6528     0.0000     2.0000 </r>
       <r>   -24.5514     0.0000     2.0000 </r>
       <r>   -24.4500     0.0000     2.0000 </r>
       <r>   -24.3486     0.0000     2.0000 </r>
       <r>   -24.2471     0.0000     2.0000 </r>
       <r>   -24.1457     0.0000     2.0000 </r>
       <r>   -24.0443     0.0000     2.0000 </r>
       <r>   -23.9429     0.0000     2.0000 </r>
       <r>   -23.8415     0.0000     2.0000 </r>
       <r>   -23.7401     0.0000     2.0000 </r>
       <r>   -23.6387     0.0000     2.0000 </r>
       <r>   -23.5372     0.0000     2.0000 </r>
       <r>   -23.4358     0.0000     2.0000 </r>
       <r>   -23.3344     0.0000     2.0000 </r>
       <r>   -23.2330     0.0000     2.0000 </r>
       <r>   -23.1316     0.0000     2.0000 </r>
       <r>   -23.0302     0.0000     2.0000 </r>
       <r>   -22.9287     0.0000     2.0000 </r>
       <r>   -22.8273     0.0000     2.0000 </r>
       <r>   -22.7259     0.0000     2.0000 </r>
       <r>   -22.6245     0.0000     2.0000 </r>
       <r>   -22.5231     0.0000     2.0000 </r>
       <r>   -22.4217     0.0000     2.0000 </r>
       <r>   -22.3203     0.0000     2.0000 </r>
       <r>   -22.2188     0.0000     2.0000 </r>
       <r>   -22.1174     0.0000     2.0000 </r>
       <r>   -22.0160     0.0000     2.0000 </r>
       <r>   -21.9146     0.0000     2.0000 </r>
       <r>   -21.8132     0.0000     2.0000 </r>
       <r>   -21.7118     0.0000     2.0000 </r>
       <r>   -21.6104     0.0000     2.0000 </r>
       <r>   -21.5089     0.0000     2.0000 </r>
       <r>   -21.4075     0.0000     2.0000 </r>
       <r>   -21.3061     0.0000     2.0000 </r>
       <r>   -21.2047     0.0000     2.0000 </r>
       <r>   -21.1033     0.0000     2.0000 </r>
       <r>   -21.0019     0.0000     2.0000 </r>
       <r>   -20.9004     0.0000     2.0000 </r>
       <r>   -20.7990     0.0000     2.0000 </r>
       <r>   -20.6976     0.0000     2.0000 </r>
       <r>   -20.5962     0.0000     2.0000 </r>
       <r>   -20.4948     0.0000     2.0000 </r>
       <r>   -20.3934     0.0000     2.0000 </r>
       <r>   -20.2920     0.0000     2.0000 </r>
       <r>   -20.1905     0.0000     2.0000 </r>
       <r>   -20.0891     0.0000     2.0000 </r>
       <r>   -19.9877     0.0000     2.0000 </r>
       <r>   -19.8863     0.0000     2.0000 </r>
       <r>   -19.7849     0.0000     2.0000 </r>
       <r>   -19.6835     0.0000     2.0000 </r>
       <r>   -19.5820     0.0000     2.0000 </r>
       <r>   -19.4806     0.0000     2.0000 </r>
       <r>   -19.3792     0.0000     2.0000 </r>
       <r>   -19.2778     0.0000     2.0000 </r>
       <r>   -19.1764     0.0000     2.0000 </r>
       <r>   -19.0750     0.0000     2.0000 </r>
       <r>   -18.9736     0.0000     2.0000 </r>
       <r>   -18.8721     0.0000     2.0000 </r>
       <r>   -18.7707     0.0000     2.0000 </r>
       <r>   -18.6693     0.0000     2.0000 </r>
       <r>   -18.5679     0.0000     2.0000 </r>
       <r>   -18.4665     0.0000     2.0000 </r>
       <r>   -18.3651     0.0000     2.0000 </r>
       <r>   -18.2636     0.0000     2.0000 </r>
       <r>   -18.1622     0.0000     2.0000 </r>
       <r>   -18.0608     0.0000     2.0000 </r>
       <r>   -17.9594     0.0000     2.0000 </r>
       <r>   -17.8580     0.0000     2.0000 </r>
       <r>   -17.7566     0.0000     2.0000 </r>
       <r>   -17.6552     0.0000     2.0000 </r>
       <r>   -17.5537     0.0000     2.0000 </r>
       <r>   -17.4523     0.0000     2.0000 </r>
       <r>   -17.3509     0.0000     2.0000 </r>
       <r>   -17.2495     0.0000     2.0000 </r>
       <r>   -17.1481     0.0000     2.0000 </r>
       <r>   -17.0467     0.0000     2.0000 </r>
       <r>   -16.9453     0.0000     2.0000 </r>
       <r>   -16.8438     0.0000     2.0000 </r>
       <r>   -16.7424     0.0000     2.0000 </r>
       <r>   -16.6410     0.0000     2.0000 </r>
       <r>   -16.5396     0.0000     2.0000 </r>
       <r>   -16.4382     0.0000     2.0000 </r>
       <r>   -16.3368     0.0000     2.0000 </r>
       <r>   -16.2353     0.0000     2.0000 </r>
       <r>   -16.1339     0.0000     2.0000 </r>
       <r>   -16.0325     0.0000     2.0000 </r>
       <r>   -15.9311     0.0000     2.0000 </r>
       <r>   -15.8297     0.0000     2.0000 </r>
       <r>   -15.7283     0.0000     2.0000 </r>
       <r>   -15.6269     0.0000     2.0000 </r>
       <r>   -15.5254     0.0000     2.0000 </r>
       <r>   -15.4240     0.0000     2.0000 </r>
       <r>   -15.3226     0.0000     2.0000 </r>
       <r>   -15.2212     0.0000     2.0000 </r>
       <r>   -15.1198     0.0000     2.0000 </r>
       <r>   -15.0184     0.0000     2.0000 </r>
       <r>   -14.9169     0.0000     2.0000 </r>
       <r>   -14.8155     0.0000     2.0000 </r>
       <r>   -14.7141     0.0000     2.0000 </r>
       <r>   -14.6127     0.0000     2.0000 </r>
       <r>   -14.5113     0.0000     2.0000 </r>
       <r>   -14.4099     0.0000     2.0000 </r>
       <r>   -14.3085     0.0000     2.0000 </r>
       <r>   -14.2070     0.0000     2.0000 </r>
       <r>   -14.1056     0.0000     2.0000 </r>
       <r>   -14.0042     0.0000     2.0000 </r>
       <r>   -13.9028     0.0000     2.0000 </r>
       <r>   -13.8014     0.0000     2.0000 </r>
       <r>   -13.7000     0.0000     2.0000 </r>
       <r>   -13.5985     0.0000     2.0000 </r>
       <r>   -13.4971     0.0000     2.0000 </r>
       <r>   -13.3957     0.0000     2.0000 </r>
       <r>   -13.2943     0.0000     2.0000 </r>
       <r>   -13.1929     0.0002     2.0000 </r>
       <r>   -13.0915     0.0421     2.0043 </r>
       <r>   -12.9901     1.4874     2.1551 </r>
       <r>   -12.8886     8.4299     3.0101 </r>
       <r>   -12.7872     8.3025     3.8521 </r>
       <r>   -12.6858     1.4197     3.9960 </r>
       <r>   -12.5844     0.0389     4.0000 </r>
       <r>   -12.4830     0.0002     4.0000 </r>
       <r>   -12.3816     0.0000     4.0000 </r>
       <r>   -12.2802     0.0000     4.0000 </r>
       <r>   -12.1787     0.0000     4.0000 </r>
       <r>   -12.0773     0.0000     4.0000 </r>
       <r>   -11.9759     0.0000     4.0000 </r>
       <r>   -11.8745     0.0000     4.0000 </r>
       <r>   -11.7731     0.0000     4.0000 </r>
       <r>   -11.6717     0.0000     4.0000 </r>
       <r>   -11.5702     0.0000     4.0000 </r>
       <r>   -11.4688     0.0000     4.0000 </r>
       <r>   -11.3674     0.0000     4.0000 </r>
       <r>   -11.2660     0.0000     4.0000 </r>
       <r>   -11.1646     0.0000     4.0000 </r>
       <r>   -11.0632     0.0000     4.0000 </r>
       <r>   -10.9618     0.0000     4.0000 </r>
       <r>   -10.8603     0.0000     4.0000 </r>
       <r>   -10.7589     0.0000     4.0000 </r>
       <r>   -10.6575     0.0000     4.0000 </r>
       <r>   -10.5561     0.0000     4.0000 </r>
       <r>   -10.4547     0.0000     4.0000 </r>
       <r>   -10.3533     0.0000     4.0000 </r>
       <r>   -10.2518     0.0000     4.0000 </r>
       <r>   -10.1504     0.0000     4.0000 </r>
       <r>   -10.0490     0.0000     4.0000 </r>
       <r>    -9.9476     0.0000     4.0000 </r>
       <r>    -9.8462     0.0000     4.0000 </r>
       <r>    -9.7448     0.0000     4.0000 </r>
       <r>    -9.6434     0.0000     4.0000 </r>
       <r>    -9.5419     0.0000     4.0000 </r>
       <r>    -9.4405     0.0000     4.0000 </r>
       <r>    -9.3391     0.0000     4.0000 </r>
       <r>    -9.2377     0.0000     4.0000 </r>
       <r>    -9.1363     0.0046     4.0005 </r>
       <r>    -9.0349     0.3783     4.0388 </r>
       <r>    -8.9334     4.8189     4.5275 </r>
       <r>    -8.8320    10.3552     5.5777 </r>
       <r>    -8.7306     3.9144     5.9747 </r>
       <r>    -8.6292     0.2471     5.9998 </r>
       <r>    -8.5278     0.0024     6.0000 </r>
       <r>    -8.4264     0.0000     6.0000 </r>
       <r>    -8.3250     0.0000     6.0000 </r>
       <r>    -8.2235     0.0000     6.0000 </r>
       <r>    -8.1221     0.0000     6.0000 </r>
       <r>    -8.0207     0.0000     6.0000 </r>
       <r>    -7.9193     0.0000     6.0000 </r>
       <r>    -7.8179     0.0000     6.0000 </r>
       <r>    -7.7165     0.0000     6.0000 </r>
       <r>    -7.6151     0.0000     6.0000 </r>
       <r>    -7.5136     0.0000     6.0000 </r>
       <r>    -7.4122     0.0000     6.0000 </r>
       <r>    -7.3108     0.0000     6.0000 </r>
       <r>    -7.2094     0.0000     6.0000 </r>
       <r>    -7.1080     0.0018     6.0002 </r>
       <r>    -7.0066     0.2058     6.0211 </r>
       <r>    -6.9051     3.5667     6.3828 </r>
       <r>    -6.8037    10.2817     7.4255 </r>
       <r>    -6.7023     5.2116     7.9540 </r>
       <r>    -6.6009     0.4474     7.9994 </r>
       <r>    -6.4995     0.0059     8.0000 </r>
       <r>    -6.3981     0.0000     8.0000 </r>
       <r>    -6.2967     0.0000     8.0000 </r>
       <r>    -6.1952     0.0000     8.0000 </r>
       <r>    -6.0938     0.0000     8.0000 </r>
       <r>    -5.9924     0.0000     8.0000 </r>
       <r>    -5.8910     0.0000     8.0000 </r>
       <r>    -5.7896     0.0000     8.0000 </r>
       <r>    -5.6882     0.0000     8.0000 </r>
       <r>    -5.5867     0.0000     8.0000 </r>
       <r>    -5.4853     0.0000     8.0000 </r>
       <r>    -5.3839     0.0000     8.0000 </r>
       <r>    -5.2825     0.0000     8.0000 </r>
       <r>    -5.1811     0.0000     8.0000 </r>
       <r>    -5.0797     0.0000     8.0000 </r>
       <r>    -4.9783     0.0000     8.0000 </r>
       <r>    -4.8768     0.0000     8.0000 </r>
       <r>    -4.7754     0.0000     8.0000 </r>
       <r>    -4.6740     0.0000     8.0000 </r>
       <r>    -4.5726     0.0000     8.0000 </r>
       <r>    -4.4712     0.0000     8.0000 </r>
       <r>    -4.3698     0.0000     8.0000 </r>
       <r>    -4.2683     0.0000     8.0000 </r>
       <r>    -4.1669     0.0000     8.0000 </r>
       <r>    -4.0655     0.0000     8.0000 </r>
       <r>    -3.9641     0.0000     8.0000 </r>
       <r>    -3.8627     0.0000     8.0000 </r>
       <r>    -3.7613     0.0000     8.0000 </r>
       <r>    -3.6599     0.0000     8.0000 </r>
       <r>    -3.5584     0.0000     8.0000 </r>
       <r>    -3.4570     0.0000     8.0000 </r>
       <r>    -3.3556     0.0000     8.0000 </r>
       <r>    -3.2542     0.0000     8.0000 </r>
       <r>    -3.1528     0.0000     8.0000 </r>
       <r>    -3.0514     0.0000     8.0000 </r>
       <r>    -2.9500     0.0000     8.0000 </r>
       <r>    -2.8485     0.0000     8.0000 </r>
       <r>    -2.7471     0.0000     8.0000 </r>
       <r>    -2.6457     0.0000     8.0000 </r>
       <r>    -2.5443     0.0000     8.0000 </r>
       <r>    -2.4429     0.0000     8.0000 </r>
       <r>    -2.3415     0.0000     8.0000 </r>
       <r>    -2.2400     0.0000     8.0000 </r>
       <r>    -2.1386     0.0000     8.0000 </r>
       <r>    -2.0372     0.0000     8.0000 </r>
       <r>    -1.9358     0.0000     8.0000 </r>
       <r>    -1.8344     0.0000     8.0000 </r>
       <r>    -1.7330     0.0000     8.0000 </r>
       <r>    -1.6316     0.0000     8.0000 </r>
       <r>    -1.5301     0.0001     8.0000 </r>
       <r>    -1.4287     0.0301     8.0031 </r>
       <r>    -1.3273     1.2203     8.1268 </r>
       <r>    -1.2259     7.8831     8.9263 </r>
       <r>    -1.1245     8.8154     9.8203 </r>
       <r>    -1.0231     1.7175     9.9945 </r>
       <r>    -0.9216     0.0540    10.0000 </r>
       <r>    -0.8202     0.0003    10.0000 </r>
       <r>    -0.7188     0.0000    10.0000 </r>
       <r>    -0.6174     0.0000    10.0000 </r>
       <r>    -0.5160     0.0000    10.0000 </r>
       <r>    -0.4146     0.0000    10.0000 </r>
       <r>    -0.3132     0.0000    10.0000 </r>
       <r>    -0.2117     0.0000    10.0000 </r>
       <r>    -0.1103     0.0000    10.0000 </r>
       <r>    -0.0089     0.0000    10.0000 </r>
       <r>     0.0925     0.0000    10.0000 </r>
       <r>     0.1939     0.0000    10.0000 </r>
       <r>     0.2953     0.0000    10.0000 </r>
       <r>     0.3968     0.0000    10.0000 </r>
       <r>     0.4982     0.0000    10.0000 </r>
       <r>     0.5996     0.0000    10.0000 </r>
       <r>     0.7010     0.0000    10.0000 </r>
       <r>     0.8024     0.0000    10.0000 </r>
       <r>     0.9038     0.0000    10.0000 </r>
       <r>     1.0052     0.0000    10.0000 </r>
       <r>     1.1067     0.0000    10.0000 </r>
       <r>     1.2081     0.0000    10.0000 </r>
       <r>     1.3095     0.0000    10.0000 </r>
       <r>     1.4109     0.0000    10.0000 </r>
       <r>     1.5123     0.0000    10.0000 </r>
       <r>     1.6137     0.0000    10.0000 </r>
       <r>     1.7151     0.0000    10.0000 </r>
       <r>     1.8166     0.0000    10.0000 </r>
       <r>     1.9180     0.0048    10.0005 </r>
       <r>     2.0194     0.4195    10.0430 </r>
       <r>     2.1208     6.2665    10.6786 </r>
       <r>     2.2222    18.6943    12.5744 </r>
       <r>     2.3236    12.3064    13.8225 </r>
       <r>     2.4251     2.2044    14.0461 </r>
       <r>     2.5265     5.4816    14.6020 </r>
       <r>     2.6279    10.2215    15.6386 </r>
       <r>     2.7293     3.3770    15.9811 </r>
       <r>     2.8307     0.1851    15.9998 </r>
       <r>     2.9321     0.0015    16.0000 </r>
       <r>     3.0335     0.0000    16.0000 </r>
       <r>     3.1350     0.0000    16.0000 </r>
       <r>     3.2364     0.0000    16.0000 </r>
       <r>     3.3378     0.0000    16.0000 </r>
       <r>     3.4392     0.0000    16.0000 </r>
       <r>     3.5406     0.0000    16.0000 </r>
       <r>     3.6420     0.0000    16.0000 </r>
       <r>     3.7435     0.0000    16.0000 </r>
       <r>     3.8449     0.0000    16.0000 </r>
       <r>     3.9463     0.0000    16.0000 </r>
      </set>
     </set>
    </array>
   </total>
  </dos>
 </calculation>
 <structure name="finalpos" >
  <crystal>
   <varray name="basis" >
    <v>       6.35016000       0.00000000       0.00000000 </v>
    <v>       0.00000000       6.35016000       0.00000000 </v>
    <v>       0.00000000       0.00000000       6.35016000 </v>
   </varray>
   <i name="volume">    256.06723029 </i>
   <varray name="rec_basis" >
    <v>       0.15747635       0.00000000       0.00000000 </v>
    <v>       0.00000000       0.15747635       0.00000000 </v>
    <v>       0.00000000       0.00000000       0.15747635 </v>
   </varray>
  </crystal>
  <varray name="positions" >
   <v>       0.00000000       0.00000000       0.00000000 </v>
   <v>       0.09167672       0.88082022       0.00000000 </v>
   <v>       0.09167636       0.11918009       0.00000000 </v>
  </varray>
  <varray name="selective"  type="logical" >
   <v type="logical" >  F  F  F </v>
   <v type="logical" >  T  T  F </v>
   <v type="logical" >  T  T  F </v>
  </varray>
  <varray name="velocities" >
   <v>       0.00000000       0.00000000       0.00000000 </v>
   <v>       0.00000182      -0.00000238       0.00000000 </v>
   <v>       0.00000178       0.00000241       0.00000000 </v>
  </varray>
  <nose>
   <v>      -3.00000000       0.00000000       0.00010000       0.00010000 </v>
  </nose>
 </structure>
</modeling>
