<?xml version="1.0" encoding="ISO-8859-1"?>
<modeling>
 <generator>
  <i name="program" type="string">vasp </i>
  <i name="version" type="string">6.4.2  </i>
  <i name="subversion" type="string">20Jul23 (build Nov 21 2024 16:34:56) gamma-only                       parallel </i>
  <i name="platform" type="string">LinuxGNU </i>
  <i name="date" type="string">2025 03 16 </i>
  <i name="time" type="string">00:36:07 </i>
 </generator>
 <incar>
  <i type="int" name="IBRION">     1</i>
  <i type="int" name="NFREE">     2</i>
  <i name="EDIFFG">     -0.02000000</i>
  <i type="int" name="NSW">    10</i>
  <i name="ENCUT">    520.00000000</i>
  <i type="int" name="ISMEAR">     0</i>
  <i name="SIGMA">      0.10000000</i>
 </incar>
 <primitive_cell>
  <structure name="primitive_cell" >
   <crystal>
    <varray name="basis" >
     <v>       6.35016000       0.00000000       0.00000000 </v>
     <v>       0.00000000       6.35016000       0.00000000 </v>
     <v>       0.00000000       0.00000000       6.35016000 </v>
    </varray>
    <i name="volume">    256.06723029 </i>
    <varray name="rec_basis" >
     <v>       0.15747635       0.00000000       0.00000000 </v>
     <v>       0.00000000       0.15747635       0.00000000 </v>
     <v>       0.00000000       0.00000000       0.15747635 </v>
    </varray>
   </crystal>
   <varray name="positions" >
    <v>       0.00000000       0.00000000       0.00000000 </v>
    <v>       0.09166667       0.88083333       0.00000000 </v>
    <v>       0.09166667       0.11916667       0.00000000 </v>
   </varray>
  </structure>
  <varray name="primitive_index" >
   <v type="int" >        1 </v>
   <v type="int" >        2 </v>
   <v type="int" >        3 </v>
  </varray>
 </primitive_cell>
 <kpoints>
  <generation param="Monkhorst-Pack">
   <v type="int" name="divisions">       1        1        1 </v>
   <v name="usershift">      0.00000000       0.00000000       0.00000000 </v>
   <v name="genvec1">      1.00000000       0.00000000       0.00000000 </v>
   <v name="genvec2">      0.00000000       1.00000000       0.00000000 </v>
   <v name="genvec3">      0.00000000       0.00000000       1.00000000 </v>
   <v name="shift">      0.00000000       0.00000000       0.00000000 </v>
  </generation>
  <varray name="kpointlist" >
   <v>       0.00000000       0.00000000       0.00000000 </v>
  </varray>
  <varray name="weights" >
   <v>       1.00000000 </v>
  </varray>
 </kpoints>
 <parameters>
  <separator name="general" >
   <i type="string" name="SYSTEM">unknown system</i>
   <i type="logical" name="LCOMPAT"> F  </i>
  </separator>
  <separator name="electronic" >
   <i type="string" name="PREC">normal</i>
   <i name="ENMAX">    520.00000000</i>
   <i name="ENAUG">    605.39200000</i>
   <i name="EDIFF">      0.00010000</i>
   <i type="int" name="IALGO">    38</i>
   <i type="int" name="IWAVPR">    11</i>
   <i type="int" name="NBANDS">     8</i>
   <i type="int" name="NBANDSLOW">    -1</i>
   <i type="int" name="NBANDSHIGH">    -1</i>
   <i name="NELECT">      8.00000000</i>
   <i type="int" name="TURBO">     0</i>
   <i type="int" name="IRESTART">     0</i>
   <i type="int" name="NREBOOT">     0</i>
   <i type="int" name="NMIN">     0</i>
   <i name="EREF">      0.00000000</i>
   <separator name="electronic smearing" >
    <i type="int" name="ISMEAR">     0</i>
    <i name="SIGMA">      0.10000000</i>
    <i name="KSPACING">      0.50000000</i>
    <i type="logical" name="KGAMMA"> T  </i>
    <i type="logical" name="KBLOWUP"> T  </i>
   </separator>
   <separator name="electronic projectors" >
    <i type="logical" name="LREAL"> F  </i>
    <v name="ROPT">      0.00000000      0.00000000</v>
    <i type="int" name="LMAXPAW">  -100</i>
    <i type="int" name="LMAXMIX">     2</i>
    <i type="logical" name="NLSPLINE"> F  </i>
   </separator>
   <separator name="electronic startup" >
    <i type="int" name="ISTART">     0</i>
    <i type="int" name="ICHARG">     2</i>
    <i type="int" name="INIWAV">     1</i>
   </separator>
   <separator name="electronic spin" >
    <i type="int" name="ISPIN">     1</i>
    <i type="logical" name="LNONCOLLINEAR"> F  </i>
    <v name="MAGMOM">      1.00000000      1.00000000      1.00000000</v>
    <i name="NUPDOWN">     -1.00000000</i>
    <i type="logical" name="LSORBIT"> F  </i>
    <v name="SAXIS">      0.00000000      0.00000000      1.00000000</v>
    <i type="logical" name="LSPIRAL"> F  </i>
    <v name="QSPIRAL">      0.00000000      0.00000000      0.00000000</v>
    <i type="logical" name="LZEROZ"> F  </i>
   </separator>
   <separator name="electronic exchange-correlation" >
    <i type="logical" name="LASPH"> F  </i>
    <i type="logical" name="LMETAGGA"> F  </i>
   </separator>
   <separator name="electronic convergence" >
    <i type="int" name="NELM">    60</i>
    <i type="int" name="NELMDL">    -5</i>
    <i type="int" name="NELMIN">     2</i>
    <i name="ENINI">    520.00000000</i>
    <separator name="electronic convergence detail" >
     <i type="logical" name="LDIAG"> T  </i>
     <i type="logical" name="LSUBROT"> F  </i>
     <i name="WEIMIN">      0.00100000</i>
     <i name="EBREAK">      0.00000313</i>
     <i name="DEPER">      0.30000000</i>
     <i type="int" name="NRMM">     4</i>
     <i name="TIME">      0.40000000</i>
    </separator>
   </separator>
   <separator name="electronic mixer" >
    <i name="AMIX">      0.40000000</i>
    <i name="BMIX">      1.00000000</i>
    <i name="AMIN">      0.10000000</i>
    <i name="AMIX_MAG">      1.60000000</i>
    <i name="BMIX_MAG">      1.00000000</i>
    <separator name="electronic mixer details" >
     <i type="int" name="IMIX">     4</i>
     <i type="logical" name="MIXFIRST"> F  </i>
     <i type="int" name="MAXMIX">   -45</i>
     <i name="WC">    100.00000000</i>
     <i type="int" name="INIMIX">     1</i>
     <i type="int" name="MIXPRE">     1</i>
     <i type="int" name="MREMOVE">     5</i>
    </separator>
   </separator>
   <separator name="electronic dipolcorrection" >
    <i type="logical" name="LDIPOL"> F  </i>
    <i type="logical" name="LMONO"> F  </i>
    <i type="int" name="IDIPOL">     0</i>
    <i name="EPSILON">      1.00000000</i>
    <v name="DIPOL">   -100.00000000   -100.00000000   -100.00000000</v>
    <i name="EFIELD">      0.00000000</i>
   </separator>
  </separator>
  <separator name="grids" >
   <i type="int" name="NGX">    36</i>
   <i type="int" name="NGY">    36</i>
   <i type="int" name="NGZ">    36</i>
   <i type="int" name="NGXF">    72</i>
   <i type="int" name="NGYF">    72</i>
   <i type="int" name="NGZF">    72</i>
   <i type="logical" name="ADDGRID"> F  </i>
  </separator>
  <separator name="ionic" >
   <i type="int" name="NSW">    10</i>
   <i type="int" name="IBRION">     1</i>
   <i type="int" name="MDALGO">     0</i>
   <i type="int" name="ISIF">     2</i>
   <i name="PSTRESS">      0.00000000</i>
   <i name="EDIFFG">     -0.02000000</i>
   <i type="int" name="NFREE">     2</i>
   <i name="POTIM">      0.50000000</i>
   <i name="SMASS">     -3.00000000</i>
   <i name="SCALEE">      1.00000000</i>
  </separator>
  <separator name="ionic md" >
   <i name="TEBEG">      0.00010000</i>
   <i name="TEEND">      0.00010000</i>
   <i type="int" name="NBLOCK">     1</i>
   <i type="int" name="KBLOCK">    10</i>
   <i type="int" name="NPACO">   256</i>
   <i name="APACO">     10.00000000</i>
  </separator>
  <separator name="symmetry" >
   <i type="int" name="ISYM">     2</i>
   <i name="SYMPREC">      0.00001000</i>
  </separator>
  <separator name="dos" >
   <i type="int" name="LORBIT">     0</i>
   <v name="RWIGS">     -1.00000000     -1.00000000</v>
   <i type="int" name="NEDOS">   301</i>
   <i name="EMIN">     10.00000000</i>
   <i name="EMAX">    -10.00000000</i>
   <i name="EFERMI">      0.00000000</i>
  </separator>
  <separator name="writing" >
   <i type="int" name="NWRITE">     2</i>
   <i type="logical" name="LWAVE"> T  </i>
   <i type="logical" name="LDOWNSAMPLE"> F  </i>
   <i type="logical" name="LCHARG"> T  </i>
   <i type="logical" name="LPARD"> F  </i>
   <i type="logical" name="LVTOT"> F  </i>
   <i type="logical" name="LVHAR"> F  </i>
   <i type="logical" name="LELF"> F  </i>
   <i type="logical" name="LOPTICS"> F  </i>
   <v name="STM">      0.00000000      0.00000000      0.00000000      0.00000000      0.00000000      0.00000000      0.00000000</v>
  </separator>
  <separator name="performance" >
   <i type="int" name="NPAR">     1</i>
   <i type="int" name="NSIM">     4</i>
   <i type="int" name="NBLK">    -1</i>
   <i type="logical" name="LPLANE"> T  </i>
   <i type="logical" name="LSCALAPACK"> T  </i>
   <i type="logical" name="LSCAAWARE"> F  </i>
   <i type="logical" name="LSCALU"> F  </i>
   <i type="logical" name="LASYNC"> F  </i>
   <i type="logical" name="LORBITALREAL"> F  </i>
  </separator>
  <separator name="miscellaneous" >
   <i type="int" name="IDIOT">     3</i>
   <i type="int" name="PHON_NSTRUCT">    -1</i>
   <i type="logical" name="LMUSIC"> F  </i>
   <v name="POMASS">     16.00000000      1.00000000</v>
   <v name="DARWINR">      0.00000000      0.00000000</v>
   <v name="DARWINV">      1.00000000      1.00000000</v>
   <i type="logical" name="LCORR"> T  </i>
  </separator>
  <i type="logical" name="GGA_COMPAT"> T  </i>
  <i type="logical" name="LBERRY"> F  </i>
  <i type="int" name="ICORELEVEL">     0</i>
  <i type="logical" name="LDAU"> F  </i>
  <i type="int" name="I_CONSTRAINED_M">     0</i>
  <separator name="electronic exchange-correlation" >
   <i type="string" name="GGA">--</i>
   <i type="int" name="VOSKOWN">     0</i>
   <i type="logical" name="LHFCALC"> F  </i>
   <i type="string" name="PRECFOCK"></i>
   <i type="logical" name="LSYMGRAD"> F  </i>
   <i type="logical" name="LHFONE"> F  </i>
   <i type="logical" name="LRHFCALC"> F  </i>
   <i type="logical" name="LTHOMAS"> F  </i>
   <i type="logical" name="LMODELHF"> F  </i>
   <i type="logical" name="LFOCKACE"> F  </i>
   <i name="ENCUT4O">     -1.00000000</i>
   <i type="int" name="EXXOEP">     0</i>
   <i type="int" name="FOURORBIT">     0</i>
   <i name="AEXX">      0.00000000</i>
   <i name="HFALPHA">      0.00000000</i>
   <i name="MCALPHA">      0.00000000</i>
   <i name="ALDAX">      1.00000000</i>
   <i name="AGGAX">      1.00000000</i>
   <i name="ALDAC">      1.00000000</i>
   <i name="AGGAC">      1.00000000</i>
   <i type="int" name="NKREDX">     1</i>
   <i type="int" name="NKREDY">     1</i>
   <i type="int" name="NKREDZ">     1</i>
   <i type="logical" name="SHIFTRED"> F  </i>
   <i type="logical" name="ODDONLY"> F  </i>
   <i type="logical" name="EVENONLY"> F  </i>
   <i type="int" name="LMAXFOCK">     0</i>
   <i type="int" name="NMAXFOCKAE">     0</i>
   <i type="logical" name="LFOCKAEDFT"> F  </i>
   <i name="HFSCREEN">      0.00000000</i>
   <i name="HFSCREENC">      0.00000000</i>
   <i type="int" name="NBANDSGWLOW">     0</i>
  </separator>
  <separator name="vdW DFT" >
   <i type="logical" name="LUSE_VDW"> F  </i>
   <i type="int" name="IVDW_NL">     1</i>
   <i type="logical" name="LSPIN_VDW"> F  </i>
   <i name="Zab_VDW">     -0.84910000</i>
   <i name="PARAM1">      0.12340000</i>
   <i name="PARAM2">      1.00000000</i>
   <i name="PARAM3">      0.00000000</i>
  </separator>
  <separator name="model GW" >
   <i type="int" name="MODEL_GW">     0</i>
   <i name="MODEL_EPS0">     51.21344606</i>
   <i name="MODEL_ALPHA">      1.00000000</i>
  </separator>
  <separator name="linear response parameters" >
   <i type="logical" name="LEPSILON"> F  </i>
   <i type="logical" name="LRPA"> F  </i>
   <i type="logical" name="LNABLA"> F  </i>
   <i type="logical" name="LVEL"> F  </i>
   <i name="CSHIFT">      0.10000000</i>
   <i name="OMEGAMAX">     -1.00000000</i>
   <i name="DEG_THRESHOLD">      0.00200000</i>
   <i name="RTIME">     -0.10000000</i>
   <i name="WPLASMAI">      0.00000000</i>
   <v name="DFIELD">      0.00000000      0.00000000      0.00000000</v>
   <v name="WPLASMA">      0.00000000      0.00000000      0.00000000      0.00000000      0.00000000      0.00000000      0.00000000      0.00000000      0.00000000</v>
  </separator>
  <separator name="orbital magnetization" >
   <i type="logical" name="NUCIND"> F  </i>
   <v name="MAGPOS">      0.00000000      0.00000000      0.00000000</v>
   <i type="logical" name="LNICSALL"> T  </i>
   <i type="logical" name="ORBITALMAG"> F  </i>
   <i type="logical" name="LMAGBLOCH"> F  </i>
   <i type="logical" name="LCHIMAG"> F  </i>
   <i type="logical" name="LGAUGE"> T  </i>
   <i type="int" name="MAGATOM">     0</i>
   <v name="MAGDIPOL">      0.00000000      0.00000000      0.00000000</v>
   <v name="AVECCONST">      0.00000000      0.00000000      0.00000000</v>
  </separator>
  <separator name="response functions" >
   <i type="logical" name="LALL_IN_ONE"> F  </i>
   <i type="int" name="IALL_IN_ONE">    -1</i>
   <i type="int" name="NBANDS_WAVE">    -1</i>
   <i type="logical" name="LFINITE_TEMPERATURE"> F  </i>
   <i type="logical" name="LADDER"> F  </i>
   <i type="logical" name="LRPAFORCE"> F  </i>
   <i type="logical" name="LFXC"> F  </i>
   <i type="logical" name="LHARTREE"> T  </i>
   <i type="int" name="IBSE">     0</i>
   <v type="int" name="KPOINT">    -1     0     0     0</v>
   <i type="logical" name="LTCTC"> F  </i>
   <i type="logical" name="LTCTE"> F  </i>
   <i type="logical" name="LTETE"> F  </i>
   <i type="logical" name="LTRIPLET"> F  </i>
   <i type="logical" name="LFXCEPS"> F  </i>
   <i type="logical" name="LFXHEG"> F  </i>
   <i type="int" name="NATURALO">     2</i>
   <i type="logical" name="LHOLEGF"> F  </i>
   <i type="logical" name="L2ORDER"> F  </i>
   <i type="logical" name="LDMP1"> F  </i>
   <i type="logical" name="LMP2LT"> F  </i>
   <i type="logical" name="LSMP2LT"> F  </i>
   <i type="logical" name="LGWLF"> F  </i>
   <i name="ENCUTGW">     -1.60000002</i>
   <i name="ENCUTGWSOFT">     -1.60000002</i>
   <i name="ENCUTLF">     -1.00000000</i>
   <i type="logical" name="LESF_SPLINES"> F  </i>
   <i type="int" name="LMAXMP2">    -1</i>
   <i name="SCISSOR">      0.00000000</i>
   <i type="int" name="NOMEGA">     0</i>
   <i type="int" name="NOMEGAR">     0</i>
   <i type="int" name="NBANDSGW">    -1</i>
   <i type="int" name="NBANDSO">    -1</i>
   <i type="int" name="NBANDSV">    -1</i>
   <i type="int" name="NELMGW">     1</i>
   <i type="int" name="NELMHF">     1</i>
   <i type="int" name="DIM">     3</i>
   <i type="int" name="IESPILON">     4</i>
   <i type="int" name="ANTIRES">     0</i>
   <i name="OMEGAMAX">    -30.00000000</i>
   <i name="OMEGAMIN">    -30.00000000</i>
   <i name="OMEGATL">   -200.00000000</i>
   <i type="int" name="OMEGAGRID">     0</i>
   <i name="CSHIFT">     -0.10000000</i>
   <i type="logical" name="LSELFENERGY"> F  </i>
   <i type="logical" name="LSPECTRAL"> F  </i>
   <i type="logical" name="LSPECTRALGW"> F  </i>
   <i type="logical" name="LSINGLES"> F  </i>
   <i type="logical" name="LFERMIGW"> F  </i>
   <i type="logical" name="ODDONLYGW"> F  </i>
   <i type="logical" name="EVENONLYGW"> F  </i>
   <i type="int" name="NKREDLFX">     1</i>
   <i type="int" name="NKREDLFY">     1</i>
   <i type="int" name="NKREDLFZ">     1</i>
   <i type="int" name="MAXMEM">  2800</i>
   <i type="int" name="TELESCOPE">     0</i>
   <i type="int" name="NTAUPAR">    -1</i>
   <i type="int" name="NOMEGAPAR">    -1</i>
   <i name="DAMP_NEWTON">      0.80000001</i>
   <i name="LAMBDA">      1.00000000</i>
  </separator>
  <separator name="External order field" >
   <i name="OFIELD_KAPPA">      0.00000000</i>
   <v name="OFIELD_K">      0.00000000      0.00000000      0.00000000</v>
   <i name="OFIELD_Q6_NEAR">      0.00000000</i>
   <i name="OFIELD_Q6_FAR">      0.00000000</i>
   <i name="OFIELD_A">      0.00000000</i>
  </separator>
  <separator name="optional k-points parameters" >
   <i type="int" name="KPOINTS_OPT_MODE">     1</i>
   <i type="logical" name="LKPOINTS_OPT"> F  </i>
  </separator>
 </parameters>
 <atominfo>
  <atoms>       3 </atoms>
  <types>       2 </types>
  <array name="atoms" >
   <dimension dim="1">ion</dimension>
   <field type="string">element</field>
   <field type="int">atomtype</field>
   <set>
    <rc><c>O </c><c>   1</c></rc>
    <rc><c>H </c><c>   2</c></rc>
    <rc><c>H </c><c>   2</c></rc>
   </set>
  </array>
  <array name="atomtypes" >
   <dimension dim="1">type</dimension>
   <field type="int">atomspertype</field>
   <field type="string">element</field>
   <field>mass</field>
   <field>valence</field>
   <field type="string">pseudopotential</field>
   <set>
    <rc><c>   1</c><c>O </c><c>     16.00000000</c><c>      6.00000000</c><c>  PAW_PBE O 08Apr2002                   </c></rc>
    <rc><c>   2</c><c>H </c><c>      1.00000000</c><c>      1.00000000</c><c>  PAW_PBE H 15Jun2001                   </c></rc>
   </set>
  </array>
 </atominfo>
 <structure name="initialpos" >
  <crystal>
   <varray name="basis" >
    <v>       6.35016000       0.00000000       0.00000000 </v>
    <v>       0.00000000       6.35016000       0.00000000 </v>
    <v>       0.00000000       0.00000000       6.35016000 </v>
   </varray>
   <i name="volume">    256.06723029 </i>
   <varray name="rec_basis" >
    <v>       0.15747635       0.00000000       0.00000000 </v>
    <v>       0.00000000       0.15747635       0.00000000 </v>
    <v>       0.00000000       0.00000000       0.15747635 </v>
   </varray>
  </crystal>
  <varray name="positions" >
   <v>       0.00000000       0.00000000       0.00000000 </v>
   <v>       0.09166667       0.88083333       0.00000000 </v>
   <v>       0.09166667       0.11916667       0.00000000 </v>
  </varray>
  <varray name="selective"  type="logical" >
   <v type="logical" >  F  F  F </v>
   <v type="logical" >  T  T  F </v>
   <v type="logical" >  T  T  F </v>
  </varray>
  <nose>
   <v>      -3.00000000       0.00000000       0.00010000       0.00010000 </v>
  </nose>
 </structure>
 <calculation>
  <scstep>
   <time name="dav">   14.47    1.82</time>
   <time name="total">   14.87    1.89</time>
   <energy>
    <i name="alphaZ">      0.87575161 </i>
    <i name="ewald">    -13.80331150 </i>
    <i name="hartreedc">   -348.16693783 </i>
    <i name="XCdc">     32.24976667 </i>
    <i name="pawpsdc">    350.81753176 </i>
    <i name="pawaedc">   -352.63395800 </i>
    <i name="eentropy">     -0.00000000 </i>
    <i name="bandstr">    -54.58798462 </i>
    <i name="atom">    457.33192828 </i>
    <i name="e_fr_energy">     72.08278637 </i>
    <i name="e_wo_entrp">     72.08278637 </i>
    <i name="e_0_energy">     72.08278637 </i>
   </energy>
  </scstep>
  <scstep>
   <time name="dav">   26.48    3.33</time>
   <time name="total">   26.48    3.34</time>
   <energy>
    <i name="e_fr_energy">     -2.01093043 </i>
    <i name="e_wo_entrp">     -2.01093043 </i>
    <i name="e_0_energy">     -2.01093043 </i>
   </energy>
  </scstep>
  <scstep>
   <time name="dav">   14.92    1.88</time>
   <time name="total">   14.92    1.88</time>
   <energy>
    <i name="e_fr_energy">    -16.04014194 </i>
    <i name="e_wo_entrp">    -16.04014194 </i>
    <i name="e_0_energy">    -16.04014194 </i>
   </energy>
  </scstep>
  <scstep>
   <time name="dav">   16.62    2.09</time>
   <time name="total">   16.62    2.09</time>
   <energy>
    <i name="e_fr_energy">    -16.34810865 </i>
    <i name="e_wo_entrp">    -16.34810865 </i>
    <i name="e_0_energy">    -16.34810865 </i>
   </energy>
  </scstep>
  <scstep>
   <time name="dav">   26.11    3.29</time>
   <time name="total">   26.79    3.38</time>
   <energy>
    <i name="e_fr_energy">    -16.35209640 </i>
    <i name="e_wo_entrp">    -16.35209640 </i>
    <i name="e_0_energy">    -16.35209640 </i>
   </energy>
  </scstep>
  <scstep>
   <time name="dav">   14.96    1.88</time>
   <time name="total">   15.98    2.03</time>
   <energy>
    <i name="e_fr_energy">    -14.36729529 </i>
    <i name="e_wo_entrp">    -14.36729529 </i>
    <i name="e_0_energy">    -14.36729529 </i>
   </energy>
  </scstep>
  <scstep>
   <time name="dav">   20.83    2.63</time>
   <time name="total">   21.89    2.79</time>
   <energy>
    <i name="e_fr_energy">    -14.25872175 </i>
    <i name="e_wo_entrp">    -14.25872175 </i>
    <i name="e_0_energy">    -14.25872175 </i>
   </energy>
  </scstep>
  <scstep>
   <time name="dav">   14.78    1.86</time>
   <time name="total">   15.87    2.02</time>
   <energy>
    <i name="e_fr_energy">    -14.18020852 </i>
    <i name="e_wo_entrp">    -14.18020852 </i>
    <i name="e_0_energy">    -14.18020852 </i>
   </energy>
  </scstep>
  <scstep>
   <time name="dav">   21.78    2.75</time>
   <time name="total">   22.78    2.90</time>
   <energy>
    <i name="e_fr_energy">    -14.18522863 </i>
    <i name="e_wo_entrp">    -14.18522863 </i>
    <i name="e_0_energy">    -14.18522863 </i>
   </energy>
  </scstep>
  <scstep>
   <time name="dav">   15.29    1.92</time>
   <time name="total">   16.35    2.08</time>
   <energy>
    <i name="e_fr_energy">    -14.19454836 </i>
    <i name="e_wo_entrp">    -14.19454836 </i>
    <i name="e_0_energy">    -14.19454836 </i>
   </energy>
  </scstep>
  <scstep>
   <time name="dav">   20.91    2.64</time>
   <time name="total">   21.97    2.80</time>
   <energy>
    <i name="e_fr_energy">    -14.19721721 </i>
    <i name="e_wo_entrp">    -14.19721721 </i>
    <i name="e_0_energy">    -14.19721721 </i>
   </energy>
  </scstep>
  <scstep>
   <time name="dav">   16.32    2.06</time>
   <time name="total">   17.41    2.22</time>
   <energy>
    <i name="e_fr_energy">    -14.19892812 </i>
    <i name="e_wo_entrp">    -14.19892812 </i>
    <i name="e_0_energy">    -14.19892812 </i>
   </energy>
  </scstep>
  <scstep>
   <time name="dav">   22.08    2.78</time>
   <time name="total">   23.16    2.94</time>
   <energy>
    <i name="e_fr_energy">    -14.19917493 </i>
    <i name="e_wo_entrp">    -14.19917493 </i>
    <i name="e_0_energy">    -14.19917493 </i>
   </energy>
  </scstep>
  <scstep>
   <time name="dav">   21.28    2.67</time>
   <time name="total">   22.34    2.84</time>
   <energy>
    <i name="e_fr_energy">    -14.19931948 </i>
    <i name="e_wo_entrp">    -14.19931948 </i>
    <i name="e_0_energy">    -14.19931948 </i>
   </energy>
  </scstep>
  <scstep>
   <time name="dav">   20.59    2.59</time>
   <time name="total">   20.95    2.66</time>
   <energy>
    <i name="alphaZ">      0.87575161 </i>
    <i name="ewald">    -13.80331150 </i>
    <i name="hartreedc">   -383.21528976 </i>
    <i name="XCdc">     34.17552496 </i>
    <i name="pawpsdc">    556.65983413 </i>
    <i name="pawaedc">   -558.78302963 </i>
    <i name="eentropy">     -0.00000000 </i>
    <i name="bandstr">   -107.44074168 </i>
    <i name="atom">    457.33192828 </i>
    <i name="e_fr_energy">    -14.19933359 </i>
    <i name="e_wo_entrp">    -14.19933359 </i>
    <i name="e_0_energy">    -14.19933359 </i>
   </energy>
  </scstep>
  <structure>
   <crystal>
    <varray name="basis" >
     <v>       6.35016000       0.00000000       0.00000000 </v>
     <v>       0.00000000       6.35016000       0.00000000 </v>
     <v>       0.00000000       0.00000000       6.35016000 </v>
    </varray>
    <i name="volume">    256.06723029 </i>
    <varray name="rec_basis" >
     <v>       0.15747635       0.00000000       0.00000000 </v>
     <v>       0.00000000       0.15747635       0.00000000 </v>
     <v>       0.00000000       0.00000000       0.15747635 </v>
    </varray>
   </crystal>
   <varray name="positions" >
    <v>       0.00000000       0.00000000       0.00000000 </v>
    <v>       0.09166667       0.88083333       0.00000000 </v>
    <v>       0.09166667       0.11916667       0.00000000 </v>
   </varray>
  </structure>
  <varray name="forces" >
   <v>      -1.05676410       0.00000000      -0.00000000 </v>
   <v>       0.52838205      -0.69649657       0.00000000 </v>
   <v>       0.52838205       0.69649657      -0.00000000 </v>
  </varray>
  <varray name="stress" >
   <v>       3.43800303       0.00000000       0.00000000 </v>
   <v>       0.00000000       6.52114001       0.00000000 </v>
   <v>       0.00000000       0.00000000       0.28204135 </v>
  </varray>
  <energy>
   <i name="e_fr_energy">    -14.19933359 </i>
   <i name="e_wo_entrp">    -14.19933359 </i>
   <i name="e_0_energy">    -14.19933359 </i>
  </energy>
  <time name="totalsc">  303.52   38.85</time>
 </calculation>
 <calculation>
  <scstep>
   <time name="dav">   14.86    1.87</time>
   <time name="total">   16.55    2.12</time>
   <energy>
    <i name="alphaZ">      0.87575161 </i>
    <i name="ewald">    -21.72123983 </i>
    <i name="hartreedc">   -379.11427482 </i>
    <i name="XCdc">     33.97211863 </i>
    <i name="pawpsdc">    556.63927114 </i>
    <i name="pawaedc">   -558.76250291 </i>
    <i name="eentropy">     -0.00000000 </i>
    <i name="bandstr">   -103.41732237 </i>
    <i name="atom">    457.33192828 </i>
    <i name="e_fr_energy">    -14.19627026 </i>
    <i name="e_wo_entrp">    -14.19627026 </i>
    <i name="e_0_energy">    -14.19627026 </i>
   </energy>
  </scstep>
  <scstep>
   <time name="dav">   21.92    2.76</time>
   <time name="total">   22.96    2.92</time>
   <energy>
    <i name="e_fr_energy">    -14.18388601 </i>
    <i name="e_wo_entrp">    -14.18388601 </i>
    <i name="e_0_energy">    -14.18388601 </i>
   </energy>
  </scstep>
  <scstep>
   <time name="dav">   21.28    2.67</time>
   <time name="total">   22.30    2.82</time>
   <energy>
    <i name="e_fr_energy">    -14.18341706 </i>
    <i name="e_wo_entrp">    -14.18341706 </i>
    <i name="e_0_energy">    -14.18341706 </i>
   </energy>
  </scstep>
  <scstep>
   <time name="dav">   19.96    2.51</time>
   <time name="total">   20.31    2.58</time>
   <energy>
    <i name="alphaZ">      0.87575161 </i>
    <i name="ewald">    -21.72123983 </i>
    <i name="hartreedc">   -377.11751180 </i>
    <i name="XCdc">     33.86153486 </i>
    <i name="pawpsdc">    531.85106680 </i>
    <i name="pawaedc">   -533.92307205 </i>
    <i name="eentropy">     -0.00000000 </i>
    <i name="bandstr">   -105.34185441 </i>
    <i name="atom">    457.33192828 </i>
    <i name="e_fr_energy">    -14.18339654 </i>
    <i name="e_wo_entrp">    -14.18339654 </i>
    <i name="e_0_energy">    -14.18339654 </i>
   </energy>
  </scstep>
  <structure>
   <crystal>
    <varray name="basis" >
     <v>       6.35016000       0.00000000       0.00000000 </v>
     <v>       0.00000000       6.35016000       0.00000000 </v>
     <v>       0.00000000       0.00000000       6.35016000 </v>
    </varray>
    <i name="volume">    256.06723029 </i>
    <varray name="rec_basis" >
     <v>       0.15747635       0.00000000       0.00000000 </v>
     <v>       0.00000000       0.15747635       0.00000000 </v>
     <v>       0.00000000       0.00000000       0.15747635 </v>
    </varray>
   </crystal>
   <varray name="positions" >
    <v>       0.00000000       0.00000000       0.00000000 </v>
    <v>       0.09568083       0.87554200       0.00000000 </v>
    <v>       0.09568083       0.12445800       0.00000000 </v>
   </varray>
  </structure>
  <varray name="forces" >
   <v>       1.17836172      -0.00000000       0.00000000 </v>
   <v>      -0.58918086       0.98471473      -0.00000000 </v>
   <v>      -0.58918086      -0.98471473       0.00000000 </v>
  </varray>
  <varray name="stress" >
   <v>      -5.34712612       0.00000000       0.00000000 </v>
   <v>       0.00000000     -10.29982509       0.00000000 </v>
   <v>       0.00000000       0.00000000      -0.31680221 </v>
  </varray>
  <energy>
   <i name="e_fr_energy">    -14.18339654 </i>
   <i name="e_wo_entrp">    -14.18339654 </i>
   <i name="e_0_energy">    -14.18339654 </i>
  </energy>
  <time name="totalsc">   86.67   11.11</time>
 </calculation>
 <calculation>
  <scstep>
   <time name="dav">   15.38    1.93</time>
   <time name="total">   17.03    2.17</time>
   <energy>
    <i name="alphaZ">      0.87575161 </i>
    <i name="ewald">    -17.32905608 </i>
    <i name="hartreedc">   -379.33815538 </i>
    <i name="XCdc">     33.97134483 </i>
    <i name="pawpsdc">    530.81468255 </i>
    <i name="pawaedc">   -532.88373368 </i>
    <i name="eentropy">     -0.00000000 </i>
    <i name="bandstr">   -107.66009551 </i>
    <i name="atom">    457.33192828 </i>
    <i name="e_fr_energy">    -14.21733337 </i>
    <i name="e_wo_entrp">    -14.21733337 </i>
    <i name="e_0_energy">    -14.21733337 </i>
   </energy>
  </scstep>
  <scstep>
   <time name="dav">   18.22    2.31</time>
   <time name="total">   19.27    2.47</time>
   <energy>
    <i name="e_fr_energy">    -14.21394109 </i>
    <i name="e_wo_entrp">    -14.21394109 </i>
    <i name="e_0_energy">    -14.21394109 </i>
   </energy>
  </scstep>
  <scstep>
   <time name="dav">   15.85    1.99</time>
   <time name="total">   16.84    2.14</time>
   <energy>
    <i name="e_fr_energy">    -14.21374707 </i>
    <i name="e_wo_entrp">    -14.21374707 </i>
    <i name="e_0_energy">    -14.21374707 </i>
   </energy>
  </scstep>
  <scstep>
   <time name="dav">   22.45    2.82</time>
   <time name="total">   22.81    2.88</time>
   <energy>
    <i name="alphaZ">      0.87575161 </i>
    <i name="ewald">    -17.32905608 </i>
    <i name="hartreedc">   -380.44716220 </i>
    <i name="XCdc">     34.03204096 </i>
    <i name="pawpsdc">    543.89245210 </i>
    <i name="pawaedc">   -545.98843763 </i>
    <i name="eentropy">     -0.00000000 </i>
    <i name="bandstr">   -106.58124859 </i>
    <i name="atom">    457.33192828 </i>
    <i name="e_fr_energy">    -14.21373156 </i>
    <i name="e_wo_entrp">    -14.21373156 </i>
    <i name="e_0_energy">    -14.21373156 </i>
   </energy>
  </scstep>
  <structure>
   <crystal>
    <varray name="basis" >
     <v>       6.35016000       0.00000000       0.00000000 </v>
     <v>       0.00000000       6.35016000       0.00000000 </v>
     <v>       0.00000000       0.00000000       6.35016000 </v>
    </varray>
    <i name="volume">    256.06723029 </i>
    <varray name="rec_basis" >
     <v>       0.15747635       0.00000000       0.00000000 </v>
     <v>       0.00000000       0.15747635       0.00000000 </v>
     <v>       0.00000000       0.00000000       0.15747635 </v>
    </varray>
   </crystal>
   <varray name="positions" >
    <v>       0.00000000       0.00000000       0.00000000 </v>
    <v>       0.09374621       0.87877538       0.00000000 </v>
    <v>       0.09374621       0.12122462       0.00000000 </v>
   </varray>
  </structure>
  <varray name="forces" >
   <v>       0.03536041       0.00000000       0.00000000 </v>
   <v>      -0.01768020       0.08696777       0.00000000 </v>
   <v>      -0.01768020      -0.08696777      -0.00000000 </v>
  </varray>
  <varray name="stress" >
   <v>      -0.24617830       0.00000000       0.00000000 </v>
   <v>       0.00000000      -0.58288091       0.00000000 </v>
   <v>       0.00000000       0.00000000       0.71284751 </v>
  </varray>
  <energy>
   <i name="e_fr_energy">    -14.21373156 </i>
   <i name="e_wo_entrp">    -14.21373156 </i>
   <i name="e_0_energy">    -14.21373156 </i>
  </energy>
  <time name="totalsc">   80.63   10.37</time>
 </calculation>
 <calculation>
  <scstep>
   <time name="dav">   17.14    2.15</time>
   <time name="total">   18.79    2.38</time>
   <energy>
    <i name="alphaZ">      0.87575161 </i>
    <i name="ewald">    -16.99408207 </i>
    <i name="hartreedc">   -380.68128716 </i>
    <i name="XCdc">     34.04414368 </i>
    <i name="pawpsdc">    544.68752423 </i>
    <i name="pawaedc">   -546.78556944 </i>
    <i name="eentropy">     -0.00000000 </i>
    <i name="bandstr">   -106.69233146 </i>
    <i name="atom">    457.33192828 </i>
    <i name="e_fr_energy">    -14.21392234 </i>
    <i name="e_wo_entrp">    -14.21392234 </i>
    <i name="e_0_energy">    -14.21392234 </i>
   </energy>
  </scstep>
  <scstep>
   <time name="dav">   25.26    3.19</time>
   <time name="total">   25.61    3.26</time>
   <energy>
    <i name="alphaZ">      0.87575161 </i>
    <i name="ewald">    -16.99408207 </i>
    <i name="hartreedc">   -380.73983107 </i>
    <i name="XCdc">     34.04740887 </i>
    <i name="pawpsdc">    545.18255246 </i>
    <i name="pawaedc">   -547.28139109 </i>
    <i name="eentropy">     -0.00000000 </i>
    <i name="bandstr">   -106.63625547 </i>
    <i name="atom">    457.33192828 </i>
    <i name="e_fr_energy">    -14.21391848 </i>
    <i name="e_wo_entrp">    -14.21391848 </i>
    <i name="e_0_energy">    -14.21391848 </i>
   </energy>
  </scstep>
  <structure>
   <crystal>
    <varray name="basis" >
     <v>       6.35016000       0.00000000       0.00000000 </v>
     <v>       0.00000000       6.35016000       0.00000000 </v>
     <v>       0.00000000       0.00000000       6.35016000 </v>
    </varray>
    <i name="volume">    256.06723029 </i>
    <varray name="rec_basis" >
     <v>       0.15747635       0.00000000       0.00000000 </v>
     <v>       0.00000000       0.15747635       0.00000000 </v>
     <v>       0.00000000       0.00000000       0.15747635 </v>
    </varray>
   </crystal>
   <varray name="positions" >
    <v>       0.00000000       0.00000000       0.00000000 </v>
    <v>       0.09379930       0.87915681       0.00000000 </v>
    <v>       0.09379930       0.12084319       0.00000000 </v>
   </varray>
  </structure>
  <varray name="forces" >
   <v>      -0.03922128       0.00000000       0.00000000 </v>
   <v>       0.01961064      -0.00129249      -0.00000000 </v>
   <v>       0.01961064       0.00129249       0.00000000 </v>
  </varray>
  <varray name="stress" >
   <v>      -0.24120272       0.00000000       0.00000000 </v>
   <v>       0.00000000      -0.06969321       0.00000000 </v>
   <v>       0.00000000       0.00000000       0.36036335 </v>
  </varray>
  <energy>
   <i name="e_fr_energy">    -14.21391848 </i>
   <i name="e_wo_entrp">    -14.21391848 </i>
   <i name="e_0_energy">    -14.21391848 </i>
  </energy>
  <time name="totalsc">   48.52    6.24</time>
  <eigenvalues>
   <array>
    <dimension dim="1">band</dimension>
    <dimension dim="2">kpoint</dimension>
    <dimension dim="3">spin</dimension>
    <field>eigene</field>
    <field>occ</field>
    <set>
     <set comment="spin 1">
      <set comment="kpoint 1">
       <r>  -24.9145    1.0000 </r>
       <r>  -12.7093    1.0000 </r>
       <r>   -8.8872    1.0000 </r>
       <r>   -6.8071    1.0000 </r>
       <r>   -1.2622    0.0000 </r>
       <r>    2.0743    0.0000 </r>
       <r>    2.1475    0.0000 </r>
       <r>    2.5475    0.0000 </r>
      </set>
     </set>
    </set>
   </array>
  </eigenvalues>
  <separator name="orbital magnetization" >
   <v name="MAGDIPOLOUT">      0.00000000      0.00000000      0.00000000</v>
  </separator>
 </calculation>
 <structure name="finalpos" >
  <crystal>
   <varray name="basis" >
    <v>       6.35016000       0.00000000       0.00000000 </v>
    <v>       0.00000000       6.35016000       0.00000000 </v>
    <v>       0.00000000       0.00000000       6.35016000 </v>
   </varray>
   <i name="volume">    256.06723029 </i>
   <varray name="rec_basis" >
    <v>       0.15747635       0.00000000       0.00000000 </v>
    <v>       0.00000000       0.15747635       0.00000000 </v>
    <v>       0.00000000       0.00000000       0.15747635 </v>
   </varray>
  </crystal>
  <varray name="positions" >
   <v>       0.00000000       0.00000000       0.00000000 </v>
   <v>       0.09379930       0.87915681       0.00000000 </v>
   <v>       0.09379930       0.12084319       0.00000000 </v>
  </varray>
  <varray name="selective"  type="logical" >
   <v type="logical" >  F  F  F </v>
   <v type="logical" >  T  T  F </v>
   <v type="logical" >  T  T  F </v>
  </varray>
  <nose>
   <v>      -3.00000000       0.00000000       0.00010000       0.00010000 </v>
  </nose>
 </structure>
</modeling>
