unknown system                          
           1
     6.350160    0.000000    0.000000
     0.000000    6.350160    0.000000
     0.000000    0.000000    6.350160
   O    H 
     1     2
Direct configuration=     1
   0.00000000  0.00000000  0.00000000
   0.09166667  0.88083333  0.00000000
   0.09166667  0.11916667  0.00000000
Direct configuration=     2
   0.00000000  0.00000000  0.00000000
   0.09568083  0.87554200  0.00000000
   0.09568083  0.12445800  0.00000000
Direct configuration=     3
   0.00000000  0.00000000  0.00000000
   0.09374621  0.87877538  0.00000000
   0.09374621  0.12122462  0.00000000
Direct configuration=     4
   0.00000000  0.00000000  0.00000000
   0.09379930  0.87915681  0.00000000
   0.09379930  0.12084319  0.00000000
