unknown system                          
           1
     6.350160    0.000000    0.000000
     0.000000    6.350160    0.000000
     0.000000    0.000000    6.350160
   O    H 
     1     2
Direct configuration=     1
   0.00000000  0.00000000  0.00000000
   0.09166667  0.88083333  0.00000000
   0.09166667  0.11916667  0.00000000
Direct configuration=     2
   0.00000000  0.00000000  0.00000000
   0.09166686  0.88083309  0.00000000
   0.09166682  0.11916694  0.00000000
Direct configuration=     3
   0.00000000  0.00000000  0.00000000
   0.09166723  0.88083261  0.00000000
   0.09166716  0.11916745  0.00000000
Direct configuration=     4
   0.00000000  0.00000000  0.00000000
   0.09166779  0.88083190  0.00000000
   0.09166768  0.11916820  0.00000000
Direct configuration=     5
   0.00000000  0.00000000  0.00000000
   0.09166852  0.88083094  0.00000000
   0.09166838  0.11916918  0.00000000
Direct configuration=     6
   0.00000000  0.00000000  0.00000000
   0.09166944  0.88082975  0.00000000
   0.09166926  0.11917041  0.00000000
Direct configuration=     7
   0.00000000  0.00000000  0.00000000
   0.09167053  0.88082832  0.00000000
   0.09167032  0.11917187  0.00000000
Direct configuration=     8
   0.00000000  0.00000000  0.00000000
   0.09167181  0.88082665  0.00000000
   0.09167156  0.11917357  0.00000000
Direct configuration=     9
   0.00000000  0.00000000  0.00000000
   0.09167327  0.88082474  0.00000000
   0.09167298  0.11917551  0.00000000
Direct configuration=    10
   0.00000000  0.00000000  0.00000000
   0.09167490  0.88082260  0.00000000
   0.09167458  0.11917768  0.00000000
